<preamble>

<basis_specs>
===============================================================================
C                    Z=   6    Mass=  12.011        Charge= 0.17977+309
Lmxo=2 Lmxkb= 1    BasisType=split      Semic=F
L=0  Nsemic=0  Cnfigmx=2
          i=1  nzeta=2  polorb=0  (2s)
            splnorm:   0.15000    
               vcte:    40.000    
               rinn:    4.0644    
               qcoe:    0.0000    
               qyuk:    0.0000    
               qwid:   0.10000E-01
                rcs:    4.5114      3.0759    
            lambdas:    1.0000      1.0000    
L=1  Nsemic=0  Cnfigmx=2
          i=1  nzeta=2  polorb=1  (2p)  (to be polarized perturbatively)
            splnorm:   0.15000    
               vcte:    40.000    
               rinn:    4.9414    
               qcoe:    0.0000    
               qyuk:    0.0000    
               qwid:   0.10000E-01
                rcs:    5.4904      3.7440    
            lambdas:    1.0000      1.0000    
L=2  Nsemic=0  Cnfigmx=3
          i=1  nzeta=0  polorb=0  (3d)  (perturbative polarization orbital) (from 2p)
-------------------------------------------------------------------------------
L=0  Nkbl=1  erefs: 0.17977+309
L=1  Nkbl=1  erefs: 0.17977+309
===============================================================================
</basis_specs>

<pseudopotential_header>
 C  pb nrl pcec
 ONCVPSP-3.2017-10-31Hamann's oncvpsp                        
 2s 2.00  r= 1.20/2p 2.00  r= 1.26/                                     2s:2p:
</pseudopotential_header>
</preamble>
C                             # Symbol
C                             # Label
    6                         # Atomic number
     4.00000000000                             # Valence charge
     12.0110000000        # Mass 
     20.7385038158        # Self energy 
   2   5                      # Lmax for basis, no. of nl orbitals 
   1   4                      # Lmax for projectors, no. of nl KB projectors
# PAOs:__________________________
  0  2  1  0  2.000000   #orbital l, n, z, is_polarized, population
 500    0.9040955461852367E-02     4.511436775464331     # npts, delta, cutoff
     0.000000000000000        0.3661050748660837    
    0.9040955461852367E-02    0.3662736996954900    
    0.1808191092370473E-01    0.3667865943667624    
    0.2712286638555710E-01    0.3676404559778064    
    0.3616382184740947E-01    0.3688338393377907    
    0.4520477730926183E-01    0.3703647268631949    
    0.5424573277111421E-01    0.3722305329798028    
    0.6328668823296657E-01    0.3744281102656320    
    0.7232764369481894E-01    0.3769537569743527    
    0.8136859915667130E-01    0.3798032258739021    
    0.9040955461852367E-01    0.3829717343603313    
    0.9945051008037603E-01    0.3864539758079302    
    0.1084914655422284        0.3902441321137943    
    0.1175324210040808        0.3943358873914013    
    0.1265733764659331        0.3987224427641923    
    0.1356143319277855        0.4033965322067097    
    0.1446552873896379        0.4083504393777170    
    0.1536962428514903        0.4135760153868356    
    0.1627371983133426        0.4190646974336916    
    0.1717781537751950        0.4248075282563160    
    0.1808191092370473        0.4307951763236493    
    0.1898600646988997        0.4370179567054190    
    0.1989010201607521        0.4434658525514388    
    0.2079419756226044        0.4501285371114999    
    0.2169829310844568        0.4569953962264670    
    0.2260238865463092        0.4640555512210119    
    0.2350648420081616        0.4712978821285281    
    0.2441057974700139        0.4787110511792428    
    0.2531467529318663        0.4862835264832945    
    0.2621877083937186        0.4940036058416366    
    0.2712286638555710        0.5018594406189419    
    0.2802696193174234        0.5098390596143233    
    0.2893105747792757        0.5179303928675073    
    0.2983515302411281        0.5261212953401750    
    0.3073924857029805        0.5343995704144161    
    0.3164334411648329        0.5427529931526522    
    0.3254743966266852        0.5511693332659323    
    0.3345153520885376        0.5596363777401085    
    0.3435563075503900        0.5681419530721546    
    0.3525972630122423        0.5766739470716000    
    0.3616382184740947        0.5852203301848626    
    0.3706791739359471        0.5937691763030128    
    0.3797201293977994        0.6023086830162532    
    0.3887610848596518        0.6108271912810918    
    0.3978020403215041        0.6193132044688175    
    0.4068429957833565        0.6277554067664533    
    0.4158839512452089        0.6361426809038114    
    0.4249249067070612        0.6444641251826714    
    0.4339658621689136        0.6527090697863541    
    0.4430068176307660        0.6608670923501551    
    0.4520477730926183        0.6689280327751588    
    0.4610887285544707        0.6768820072699506    
    0.4701296840163231        0.6847194216066076    
    0.4791706394781755        0.6924309835791741    
    0.4882115949400278        0.7000077146545528    
    0.4972525504018802        0.7074409608073975    
    0.5062935058637326        0.7147224025322272    
    0.5153344613255849        0.7218440640275340    
    0.5243754167874373        0.7287983215482103    
    0.5334163722492896        0.7355779109241047    
    0.5424573277111420        0.7421759342440477    
    0.5514982831729944        0.7485858657061365    
    0.5605392386348468        0.7548015566365518    
    0.5695801940966991        0.7608172396806482    
    0.5786211495585515        0.7666275321715098    
    0.5876621050204038        0.7722274386826025    
    0.5967030604822562        0.7776123527725849    
    0.6057440159441085        0.7827780579317354    
    0.6147849714059610        0.7877207277408099    
    0.6238259268678134        0.7924369252544803    
    0.6328668823296657        0.7969236016227593    
    0.6419078377915181        0.8011780939650180    
    0.6509487932533704        0.8051981225123442    
    0.6599897487152228        0.8089817870350409    
    0.6690307041770751        0.8125275625730550    
    0.6780716596389276        0.8158342944880002    
    0.6871126151007799        0.8189011928562991    
    0.6961535705626323        0.8217278262237079    
    0.7051945260244846        0.8243141147422082    
    0.7142354814863370        0.8266603227109364    
    0.7232764369481893        0.8287670505434368    
    0.7323173924100417        0.8306352261842451    
    0.7413583478718941        0.8322660959984457    
    0.7503993033337465        0.8336612151585878    
    0.7594402587955988        0.8348224375541627    
    0.7684812142574512        0.8357519052496726    
    0.7775221697193035        0.8364520375183329    
    0.7865631251811559        0.8369255194794536    
    0.7956040806430082        0.8371752903687407    
    0.8046450361048607        0.8372045314719156    
    0.8136859915667131        0.8370166537533918    
    0.8227269470285654        0.8366152852130185    
    0.8317679024904178        0.8360042580052259    
    0.8408088579522701        0.8351875953556641    
    0.8498498134141225        0.8341694965088581    
    0.8588907688759748        0.8329543234239807    
    0.8679317243378273        0.8315465909259268    
    0.8769726797996796        0.8299509514084200    
    0.8860136352615320        0.8281721812982886    
    0.8950545907233843        0.8262151675623028    
    0.9040955461852367        0.8240848942853976    
    0.9131365016470890        0.8217864293601312    
    0.9221774571089414        0.8193249113265890    
    0.9312184125707937        0.8167055364010511    
    0.9402593680326462        0.8139335457305940    
    0.9493003234944986        0.8110142129093795    
    0.9583412789563509        0.8079528317907959    
    0.9673822344182033        0.8047547046278321    
    0.9764231898800556        0.8014251305721405    
    0.9854641453419080        0.7979693945602327    
    0.9945051008037603        0.7943927566170990    
     1.003546056265613        0.7907004425231112    
     1.012587011727465        0.7868976313494838    
     1.021627967189317        0.7829894484832641    
     1.030668922651170        0.7789809563525785    
     1.039709878113022        0.7748771459435082    
     1.048750833574875        0.7706829290151489    
     1.057791789036727        0.7664031308539063    
     1.066832744498579        0.7620424835771648    
     1.075873699960432        0.7576056199947129    
     1.084914655422284        0.7530970680346295    
     1.093955610884136        0.7485212457386872    
     1.102996566345989        0.7438824568307730    
     1.112037521807841        0.7391848868602697    
     1.121078477269694        0.7344325999208439    
     1.130119432731546        0.7296295359435940    
     1.139160388193398        0.7247795085620182    
     1.148201343655251        0.7198862035447764    
     1.157242299117103        0.7149531777907423    
     1.166283254578955        0.7099838588786953    
     1.175324210040808        0.7049815451550042    
     1.184365165502660        0.6999494064117380    
     1.193406120964512        0.6948904850383646    
     1.202447076426365        0.6898076973876831    
     1.211488031888217        0.6847038365542062    
     1.220528987350070        0.6795815770987668    
     1.229569942811922        0.6744434809464936    
     1.238610898273774        0.6692920026238213    
     1.247651853735627        0.6641294925340163    
     1.256692809197479        0.6589582000948805    
     1.265733764659331        0.6537802773741681    
     1.274774720121184        0.6485977828714996    
     1.283815675583036        0.6434126855526686    
     1.292856631044889        0.6382268689818875    
     1.301897586506741        0.6330421348541080    
     1.310938541968593        0.6278602058893200    
     1.319979497430446        0.6226827284812932    
     1.329020452892298        0.6175112753448558    
     1.338061408354150        0.6123473483239605    
     1.347102363816003        0.6071923810806209    
     1.356143319277855        0.6020477415764478    
     1.365184274739707        0.5969147345043150    
     1.374225230201560        0.5917946036679294    
     1.383266185663412        0.5866885342720389    
     1.392307141125265        0.5815976551328317    
     1.401348096587117        0.5765230408144305    
     1.410389052048969        0.5714657136912450    
     1.419430007510822        0.5664266459375199    
     1.428470962972674        0.5614067614458292    
     1.437511918434526        0.5564069376761448    
     1.446552873896379        0.5514280074371882    
     1.455593829358231        0.5464707606018115    
     1.464634784820083        0.5415359457582047    
     1.473675740281936        0.5366242717987625    
     1.482716695743788        0.5317364094484702    
     1.491757651205641        0.5268729927347022    
     1.500798606667493        0.5220346204003304    
     1.509839562129345        0.5172218572620606    
     1.518880517591198        0.5124352355159090    
     1.527921473053050        0.5076752559917356    
     1.536962428514902        0.5029423893587295    
     1.546003383976755        0.4982370772837343    
     1.555044339438607        0.4935597335442718    
     1.564085294900460        0.4889107450980935    
     1.573126250362312        0.4842904731110636    
     1.582167205824164        0.4796992539451245    
     1.591208161286016        0.4751374001080702    
     1.600249116747869        0.4706052011667852    
     1.609290072209721        0.4661029246255813    
     1.618331027671574        0.4616308167711883    
     1.627371983133426        0.4571891034859146    
     1.636412938595278        0.4527779910304346    
     1.645453894057131        0.4483976667975892    
     1.654494849518983        0.4440483000385469    
     1.663535804980836        0.4397300425625876    
     1.672576760442688        0.4354430294117364    
     1.681617715904540        0.4311873795113882    
     1.690658671366393        0.4269631962980245    
     1.699699626828245        0.4227705683250535    
     1.708740582290097        0.4186095698477448    
     1.717781537751950        0.4144802613881813    
     1.726822493213802        0.4103826902810851    
     1.735863448675655        0.4063168912013292    
     1.744904404137507        0.4022828866738871    
     1.753945359599359        0.3982806875669284    
     1.762986315061212        0.3943102935687213    
     1.772027270523064        0.3903716936489516    
     1.781068225984916        0.3864648665050345    
     1.790109181446769        0.3825897809939507    
     1.799150136908621        0.3787463965501006    
     1.808191092370473        0.3749346635896426    
     1.817232047832326        0.3711545239017439    
     1.826273003294178        0.3674059110271463    
     1.835313958756031        0.3636887506244247    
     1.844354914217883        0.3600029608242922    
     1.853395869679735        0.3563484525722841    
     1.862436825141587        0.3527251299601375    
     1.871477780603440        0.3491328905461609    
     1.880518736065292        0.3455716256648899    
     1.889559691527145        0.3420412207262888    
     1.898600646988997        0.3385415555047718    
     1.907641602450849        0.3350725044182993    
     1.916682557912702        0.3316339367977905    
     1.925723513374554        0.3282257171471080    
     1.934764468836407        0.3248477053938418    
     1.943805424298259        0.3214997571311376    
     1.952846379760111        0.3181817238507975    
     1.961887335221964        0.3148934531678901    
     1.970928290683816        0.3116347890370985    
     1.979969246145668        0.3084055719610329    
     1.989010201607521        0.3052056391907420    
     1.998051157069373        0.3020348249186465    
     2.007092112531225        0.2988929604641237    
     2.016133067993078        0.2957798744519727    
     2.025174023454930        0.2926953929839838    
     2.034214978916783        0.2896393398038343    
     2.043255934378635        0.2866115364555352    
     2.052296889840487        0.2836118024356521    
     2.061337845302340        0.2806399553395102    
     2.070378800764192        0.2776958110016056    
     2.079419756226045        0.2747791836304356    
     2.088460711687897        0.2718898859379450    
     2.097501667149749        0.2690277292638061    
     2.106542622611602        0.2661925236947206    
     2.115583578073454        0.2633840781789399    
     2.124624533535306        0.2606022006361951    
     2.133665488997158        0.2578466980632135    
     2.142706444459011        0.2551173766350012    
     2.151747399920863        0.2524140418020625    
     2.160788355382716        0.2497364983837143    
     2.169829310844568        0.2470845506576599    
     2.178870266306420        0.2444580024459622    
     2.187911221768273        0.2418566571975699    
     2.196952177230125        0.2392803180675251    
     2.205993132691978        0.2367287879929841    
     2.215034088153830        0.2342018697661788    
     2.224075043615682        0.2316993661044267    
     2.233115999077535        0.2292210797173107    
     2.242156954539387        0.2267668133711232    
     2.251197910001240        0.2243363699506815    
     2.260238865463092        0.2219295525185986    
     2.269279820924944        0.2195461643721118    
     2.278320776386797        0.2171860090975347    
     2.287361731848649        0.2148488906224301    
     2.296402687310501        0.2125346132655614    
     2.305443642772353        0.2102429817847093    
     2.314484598234206        0.2079738014224101    
     2.323525553696058        0.2057268779496862    
     2.332566509157911        0.2035020177078299    
     2.341607464619763        0.2012990276482972    
     2.350648420081615        0.1991177153707737    
     2.359689375543468        0.1969578891594637    
     2.368730331005320        0.1948193580176593    
     2.377771286467172        0.1927019317006384    
     2.386812241929025        0.1906054207469463    
     2.395853197390877        0.1885296365081097    
     2.404894152852730        0.1864743911768296    
     2.413935108314582        0.1844394978137051    
     2.422976063776434        0.1824247703725314    
     2.432017019238287        0.1804300237242246    
     2.441057974700139        0.1784550736794100    
     2.450098930161992        0.1764997370097308    
     2.459139885623844        0.1745638314679117    
     2.468180841085696        0.1726471758066270    
     2.477221796547548        0.1707495897962170    
     2.486262752009401        0.1688708942412920    
     2.495303707471253        0.1670109109962680    
     2.504344662933105        0.1651694629798769    
     2.513385618394958        0.1633463741886848    
     2.522426573856810        0.1615414697096723    
     2.531467529318663        0.1597545757319027    
     2.540508484780515        0.1579855195573253    
     2.549549440242367        0.1562341296107025    
     2.558590395704220        0.1545002354487390    
     2.567631351166072        0.1527836677684147    
     2.576672306627925        0.1510842584147267    
     2.585713262089777        0.1494018403878101    
     2.594754217551629        0.1477362478493534    
     2.603795173013482        0.1460873161282445    
     2.612836128475334        0.1444548817251104    
     2.621877083937187        0.1428387823163556    
     2.630918039399039        0.1412388567576119    
     2.639958994860891        0.1396549450873050    
     2.648999950322743        0.1380868885299328    
     2.658040905784596        0.1365345294988529    
     2.667081861246448        0.1349977115984781    
     2.676122816708300        0.1334762796256071    
     2.685163772170153        0.1319700795703340    
     2.694204727632005        0.1304789586164617    
     2.703245683093858        0.1290027651415677    
     2.712286638555710        0.1275413487166782    
     2.721327594017562        0.1260945601055290    
     2.730368549479415        0.1246622512634626    
     2.739409504941267        0.1232442753359810    
     2.748450460403120        0.1218404866569586    
     2.757491415864972        0.1204507407465379    
     2.766532371326824        0.1190748943087098    
     2.775573326788677        0.1177128052285974    
     2.784614282250529        0.1163643325694562    
     2.793655237712382        0.1150293365694063    
     2.802696193174234        0.1137076786379041    
     2.811737148636086        0.1123992213519709    
     2.820778104097938        0.1111038284521834    
     2.829819059559791        0.1098213648384419    
     2.838860015021643        0.1085516965655245    
     2.847900970483495        0.1072946908384370    
     2.856941925945348        0.1060502160075707    
     2.865982881407200        0.1048181415636754    
     2.875023836869053        0.1035983381326570    
     2.884064792330905        0.1023906774702101    
     2.893105747792757        0.1011950324562916    
     2.902146703254610        0.1000112770894461    
     2.911187658716462        0.9883928648098940E-01
     2.920228614178315        0.9767893684905730E-01
     2.929269569640167        0.9653010551253009E-01
     2.938310525102019        0.9539267088483451E-01
     2.947351480563872        0.9426651246763601E-01
     2.956392436025724        0.9315151084442315E-01
     2.965433391487577        0.9204754767399340E-01
     2.974474346949429        0.9095450568384544E-01
     2.983515302411281        0.8987226866348254E-01
     2.992556257873134        0.8880072145763580E-01
     3.001597213334986        0.8773974995940999E-01
     3.010638168796838        0.8668924110335793E-01
     3.019679124258690        0.8564908285848957E-01
     3.028720079720543        0.8461916422121964E-01
     3.037761035182395        0.8359937520825812E-01
     3.046801990644248        0.8258960684945024E-01
     3.055842946106100        0.8158975118056687E-01
     3.064883901567952        0.8059970123605281E-01
     3.073924857029805        0.7961935104173630E-01
     3.082965812491657        0.7864859560750107E-01
     3.092006767953510        0.7768733091992852E-01
     3.101047723415362        0.7673545393491042E-01
     3.110088678877214        0.7579286257023805E-01
     3.119129634339067        0.7485945569816906E-01
     3.128170589800919        0.7393513313797652E-01
     3.137211545262771        0.7301979564848235E-01
     3.146252500724624        0.7211334492057997E-01
     3.155293456186476        0.7121568356974516E-01
     3.164334411648329        0.7032671512854258E-01
     3.173375367110181        0.6944634403912724E-01
     3.182416322572033        0.6857447564574391E-01
     3.191457278033885        0.6771101618722816E-01
     3.200498233495738        0.6685587278951033E-01
     3.209539188957590        0.6600895345812448E-01
     3.218580144419443        0.6517016707072508E-01
     3.227621099881295        0.6433942336961325E-01
     3.236662055343147        0.6351663295427357E-01
     3.245703010805000        0.6270170727392518E-01
     3.254743966266852        0.6189455862008708E-01
     3.263784921728704        0.6109510011916088E-01
     3.272825877190557        0.6030324572503037E-01
     3.281866832652409        0.5951891021168246E-01
     3.290907788114262        0.5874200916584935E-01
     3.299948743576114        0.5797245897967163E-01
     3.308989699037966        0.5721017684338740E-01
     3.318030654499819        0.5645508073804625E-01
     3.327071609961671        0.5570708942824874E-01
     3.336112565423524        0.5496612245491458E-01
     3.345153520885376        0.5423210012807996E-01
     3.354194476347228        0.5350494351972293E-01
     3.363235431809080        0.5278457445662140E-01
     3.372276387270933        0.5207091551324285E-01
     3.381317342732785        0.5136389000466479E-01
     3.390358298194637        0.5066342197953085E-01
     3.399399253656490        0.4996943621304047E-01
     3.408440209118342        0.4928185819997293E-01
     3.417481164580195        0.4860061414774795E-01
     3.426522120042047        0.4792563096952318E-01
     3.435563075503899        0.4725683627732719E-01
     3.444604030965752        0.4659415837523148E-01
     3.453644986427604        0.4593752625256118E-01
     3.462685941889457        0.4528686957714206E-01
     3.471726897351309        0.4464211868858893E-01
     3.480767852813161        0.4400320459163326E-01
     3.489808808275014        0.4337005894948933E-01
     3.498849763736866        0.4274261407726286E-01
     3.507890719198719        0.4212080293540026E-01
     3.516931674660571        0.4150455912317823E-01
     3.525972630122423        0.4089381687223569E-01
     3.535013585584275        0.4028851104014767E-01
     3.544054541046128        0.3968857710404016E-01
     3.553095496507980        0.3909395115424771E-01
     3.562136451969832        0.3850456988801313E-01
     3.571177407431685        0.3792037060322966E-01
     3.580218362893537        0.3734129119222662E-01
     3.589259318355390        0.3676727013559703E-01
     3.598300273817242        0.3619824649606945E-01
     3.607341229279094        0.3563415991242214E-01
     3.616382184740947        0.3507495059344112E-01
     3.625423140202799        0.3452055931192102E-01
     3.634464095664652        0.3397092739870909E-01
     3.643505051126504        0.3342599673679332E-01
     3.652546006588356        0.3288570975543275E-01
     3.661586962050209        0.3235000942433183E-01
     3.670627917512061        0.3181883924785892E-01
     3.679668872973914        0.3129214325930591E-01
     3.688709828435766        0.3076986601519330E-01
     3.697750783897618        0.3025195258961745E-01
     3.706791739359470        0.2973834856864078E-01
     3.715832694821323        0.2922900004472579E-01
     3.724873650283175        0.2872385361121126E-01
     3.733914605745027        0.2822285635683155E-01
     3.742955561206880        0.2772595586027893E-01
     3.751996516668732        0.2723310018480782E-01
     3.761037472130585        0.2674423787288254E-01
     3.770078427592437        0.2625931794086602E-01
     3.779119383054289        0.2577828987375163E-01
     3.788160338516142        0.2530110361993716E-01
     3.797201293977994        0.2482770958603952E-01
     3.806242249439847        0.2435805863175240E-01
     3.815283204901699        0.2389210206474430E-01
     3.824324160363551        0.2342979163559841E-01
     3.833365115825404        0.2297107953279361E-01
     3.842406071287256        0.2251591837772564E-01
     3.851447026749108        0.2206426121977021E-01
     3.860487982210961        0.2161606153138471E-01
     3.869528937672813        0.2117127320325183E-01
     3.878569893134665        0.2072985053946244E-01
     3.887610848596518        0.2029174825273786E-01
     3.896651804058370        0.1985692145969236E-01
     3.905692759520222        0.1942532567613407E-01
     3.914733714982075        0.1899691681240595E-01
     3.923774670443927        0.1857165116876441E-01
     3.932815625905780        0.1814948543079708E-01
     3.941856581367632        0.1773037666487916E-01
     3.950897536829484        0.1731428231366651E-01
     3.959938492291337        0.1690116019162797E-01
     3.968979447753189        0.1649096848061384E-01
     3.978020403215041        0.1608366572546257E-01
     3.987061358676894        0.1567921082964330E-01
     3.996102314138746        0.1527756305093601E-01
     4.005143269600598        0.1487868199714780E-01
     4.014184225062451        0.1448252762186459E-01
     4.023225180524303        0.1408906022023954E-01
     4.032266135986156        0.1369824042481609E-01
     4.041307091448008        0.1331002920138727E-01
     4.050348046909860        0.1292438784488849E-01
     4.059389002371713        0.1254127797532672E-01
     4.068429957833565        0.1216066153374277E-01
     4.077470913295418        0.1178250077820786E-01
     4.086511868757269        0.1140675827985535E-01
     4.095552824219122        0.1103339692081923E-01
     4.104593779680974        0.1066237999753181E-01
     4.113634735142827        0.1029367252176945E-01
     4.122675690604679        0.9927246955950566E-02
     4.131716646066532        0.9563095761358741E-02
     4.140757601528384        0.9201248335065575E-02
     4.149798556990237        0.8841787092427129E-02
     4.158839512452089        0.8484858600070975E-02
     4.167880467913941        0.8130678235905839E-02
     4.176921423375793        0.7779528821485210E-02
     4.185962378837646        0.7431754607588368E-02
     4.195003334299498        0.7087752185915178E-02
     4.204044289761351        0.6747959715587104E-02
     4.213085245223203        0.6412845540508547E-02
     4.222126200685056        0.6082896960189738E-02
     4.231167156146908        0.5758609653452154E-02
     4.240208111608760        0.5440478053096269E-02
     4.249249067070613        0.5128986824581765E-02
     4.258290022532464        0.4824603502090546E-02
     4.267330977994317        0.4527772269773923E-02
     4.276371933456169        0.4238908834999986E-02
     4.285412888918022        0.3958396316559342E-02
     4.294453844379874        0.3686582058575306E-02
     4.303494799841727        0.3423775276318949E-02
     4.312535755303579        0.3170245440498062E-02
     4.321576710765432        0.2926221309935001E-02
     4.330617666227284        0.2691890527579193E-02
     4.339658621689136        0.2467399700612493E-02
     4.348699577150988        0.2252854891401171E-02
     4.357740532612841        0.2048322451784963E-02
     4.366781488074693        0.1853830138344364E-02
     4.375822443536546        0.1669368450528868E-02
     4.384863398998398        0.1494892136496174E-02
     4.393904354460251        0.1330321812671946E-02
     4.402945309922103        0.1175545641532292E-02
     4.411986265383955        0.1030421006441348E-02
     4.421027220845807        0.8947761098115419E-03
     4.430068176307659        0.7684113961929154E-03
     4.439109131769512        0.6511006547242512E-03
     4.448150087231364        0.5425915636492242E-03
     4.457191042693217        0.4426052533250067E-03
     4.466231998155069        0.3508340600212612E-03
     4.475272953616922        0.2669356823262357E-03
     4.484313909078774        0.1905193657093712E-03
     4.493354864540627        0.1211114160534469E-03
     4.502395820002479        0.5805181627553471E-04
     4.511436775464331         0.000000000000000    
  0  2  2  0  0.000000   #orbital l, n, z, is_polarized, population
 500    0.6164044554379432E-02     3.075858232635337     # npts, delta, cutoff
     0.000000000000000        0.2091091262404816    
    0.6164044554379432E-02    0.2092433865157035    
    0.1232808910875886E-01    0.2096586740925949    
    0.1849213366313830E-01    0.2103504644702555    
    0.2465617821751773E-01    0.2113182161544734    
    0.3082022277189716E-01    0.2125611739516763    
    0.3698426732627659E-01    0.2140783686746593    
    0.4314831188065602E-01    0.2158686180640927    
    0.4931235643503545E-01    0.2179305280692692    
    0.5547640098941489E-01    0.2202624943908157    
    0.6164044554379432E-01    0.2228627042637177    
    0.6780449009817374E-01    0.2257291384723882    
    0.7396853465255318E-01    0.2288595735926119    
    0.8013257920693262E-01    0.2322515844558590    
    0.8629662376131204E-01    0.2359025468315047    
    0.9246066831569147E-01    0.2398096403222655    
    0.9862471287007091E-01    0.2439698514679161    
    0.1047887574244503        0.2483799770520354    
    0.1109528019788298        0.2530366276062437    
    0.1171168465332092        0.2579362311061076    
    0.1232808910875886        0.2630750368526020    
    0.1294449356419681        0.2684491195327551    