<preamble>

<basis_specs>
===============================================================================
H                    Z=   1    Mass=  1.0080        Charge= 0.17977+309
Lmxo=1 Lmxkb= 1    BasisType=split      Semic=F
L=0  Nsemic=0  Cnfigmx=1
          i=1  nzeta=2  polorb=1  (1s)  (to be polarized perturbatively)
            splnorm:   0.15000    
               vcte:    40.000    
               rinn:    4.7855    
               qcoe:    0.0000    
               qyuk:    0.0000    
               qwid:   0.10000E-01
                rcs:    5.3172      3.6004    
            lambdas:    1.0000      1.0000    
L=1  Nsemic=0  Cnfigmx=2
          i=1  nzeta=0  polorb=0  (2p)  (perturbative polarization orbital) (from 1s)
-------------------------------------------------------------------------------
L=0  Nkbl=1  erefs: 0.17977+309
L=1  Nkbl=1  erefs: 0.17977+309
===============================================================================
</basis_specs>

<pseudopotential_header>
 H  pb nrl nc  
 ONCVPSP-3.2017-10-31Hamann's oncvpsp                        
 1s 1.00  r= 1.01/2p 0.00  r= 0.71/                                     1s:
</pseudopotential_header>
</preamble>
H                             # Symbol
H                             # Label
    1                         # Atomic number
     1.00000000000                             # Valence charge
     1.00800000000        # Mass 
     2.27454303331        # Self energy 
   1   3                      # Lmax for basis, no. of nl orbitals 
   1   3                      # Lmax for projectors, no. of nl KB projectors
# PAOs:__________________________
  0  1  1  0  1.000000   #orbital l, n, z, is_polarized, population
 500    0.1065575457643037E-01     5.317221533638754     # npts, delta, cutoff
     0.000000000000000         1.547567689011581    
    0.1065575457643037E-01     1.547326418494294    
    0.2131150915286074E-01     1.546610917624390    
    0.3196726372929111E-01     1.545420364622010    
    0.4262301830572148E-01     1.543757659269170    
    0.5327877288215185E-01     1.541626822779041    
    0.6393452745858222E-01     1.539032959348472    
    0.7459028203501260E-01     1.535982208779907    
    0.8524603661144296E-01     1.532481690951756    
    0.9590179118787333E-01     1.528539443313589    
    0.1065575457643037         1.524164352687758    
    0.1172133003407341         1.519366082694795    
    0.1278690549171644         1.514154998110686    
    0.1385248094935948         1.508542087419725    
    0.1491805640700252         1.502538884755834    
    0.1598363186464556         1.496157392336164    
    0.1704920732228859         1.489410004390027    
    0.1811478277993163         1.482309433479676    
    0.1918035823757467         1.474868640000747    
    0.2024593369521770         1.467100765542425    
    0.2131150915286074         1.459019070681578    
    0.2237708461050378         1.450636877682194    
    0.2344266006814681         1.441967518471208    
    0.2450823552578985         1.433024288164071    
    0.2557381098343289         1.423820404317856    
    0.2663938644107592         1.414368971996123    
    0.2770496189871896         1.404682954638245    
    0.2877053735636200         1.394775150636775    
    0.2983611281400504         1.384658175440234    
    0.3090168827164808         1.374344448916433    
    0.3196726372929111         1.363846187633979    
    0.3303283918693415         1.353175401648274    
    0.3409841464457719         1.342343895314165    
    0.3516399010222022         1.331363271591833    
    0.3622956555986326         1.320244939266383    
    0.3729514101750629         1.309000122466146    
    0.3836071647514933         1.297639871840499    
    0.3942629193279237         1.286175076745857    
    0.4049186739043541         1.274616477788460    
    0.4155744284807845         1.262974679085093    
    0.4262301830572148         1.251260159627494    
    0.4368859376336452         1.239483283172727    
    0.4475416922100756         1.227654306129474    
    0.4581974467865059         1.215783382968280    
    0.4688532013629363         1.203880568751068    
    0.4795089559393667         1.191955818450680    
    0.4901647105157970         1.180018982813216    
    0.5008204650922274         1.168079800603111    
    0.5114762196686578         1.156147887161590    
    0.5221319742450882         1.144232719295334    
    0.5327877288215185         1.132343619387373    
    0.5434434833979489         1.120489725129144    
    0.5540992379743792         1.108679972667294    
    0.5647549925508096         1.096923066304748    
    0.5754107471272401         1.085227448465674    
    0.5860665017036704         1.073601268045956    
    0.5967222562801008         1.062052347626944    
    0.6073780108565311         1.050588150168594    
    0.6180337654329615         1.039215745830230    
    0.6286895200093918         1.027941779585915    
    0.6393452745858222         1.016772440306319    
    0.6500010291622526         1.005713431969677    
    0.6606567837386830        0.9947699476410603    
    0.6713125383151133        0.9839466468219563    
    0.6819682928915437        0.9732476367218413    
    0.6926240474679741        0.9626764579409466    
    0.7032798020444044        0.9522360749800574    
    0.7139355566208349        0.9419288719104258    
    0.7245913111972652        0.9317566534465532    
    0.7352470657736956        0.9217206515686222    
    0.7459028203501259        0.9118215377417423    
    0.7565585749265563        0.9020594406778142    
    0.7672143295029866        0.8924339694851144    
    0.7778700840794170        0.8829442419527301    
    0.7885258386558474        0.8735889176236925    
    0.7991815932322778        0.8643662352238817    
    0.8098373478087082        0.8552740539352239    
    0.8204931023851385        0.8463098979327788    
    0.8311488569615689        0.8374710035472865    
    0.8418046115379992        0.8287543683685863    
    0.8524603661144297        0.8201568015716866    
    0.8631161206908600        0.8116749747267552    
    0.8737718752672904        0.8033054723469414    
    0.8844276298437207        0.7950448414338647    
    0.8950833844201511        0.7868896392994207    
    0.9057391389965814        0.7788364789737842    
    0.9163948935730118        0.7708820715524710    
    0.9270506481494423        0.7630232648890296    
    0.9377064027258726        0.7552570781034282    
    0.9483621573023030        0.7475807314481258    
    0.9590179118787333        0.7399916711529212    
    0.9696736664551637        0.7324875889540096    
    0.9803294210315940        0.7250664361298755    
    0.9909851756080245        0.7177264318994688    
     1.001640930184455        0.7104660648239950    
     1.012296684760885        0.7032840970526337    
     1.022952439337316        0.6961795152499877    
     1.033608193913746        0.6891514060274120    
     1.044263948490176        0.6821988700791352    
     1.054919703066607        0.6753210179592959    
     1.065575457643037        0.6685169718356284    
     1.076231212219467        0.6617858643514691    
     1.086886966795898        0.6551268389370997    
     1.097542721372328        0.6485390495745236    
     1.108198475948758        0.6420216607082745    
     1.118854230525189        0.6355738471319294    
     1.129509985101619        0.6291947938728976    
     1.140165739678050        0.6228836960788816    
     1.150821494254480        0.6166397589042115    
     1.161477248830910        0.6104621973964417    
     1.172133003407341        0.6043502363832540    
     1.182788757983771        0.5983031103597163    
     1.193444512560202        0.5923200633759496    
     1.204100267136632        0.5864003489252598    
     1.214756021713062        0.5805432298327691    
     1.225411776289492        0.5747479781446039    
     1.236067530865923        0.5690138750176673    
     1.246723285442353        0.5633402106100462    
     1.257379040018784        0.5577262839720771    
     1.268034794595214        0.5521714029381135    
     1.278690549171644        0.5466748840190213    
     1.289346303748075        0.5412360522954305    
     1.300002058324505        0.5358542413117708    
     1.310657812900936        0.5305287929711174    
     1.321313567477366        0.5252590574308675    
     1.331969322053796        0.5200443929992669    
     1.342625076630227        0.5148841660328135    
     1.353280831206657        0.5097777508345421    
     1.363936585783087        0.5047245295532224    
     1.374592340359518        0.4997238920834702    
     1.385248094935948        0.4947752359667937    
     1.395903849512379        0.4898779662935848    
     1.406559604088809        0.4850314956060632    
     1.417215358665239        0.4802352438021846    
     1.427871113241670        0.4754886380405227    
     1.438526867818100        0.4707911126461274    
     1.449182622394530        0.4661421090173697    
     1.459838376970961        0.4615410755337748    
     1.470494131547391        0.4569874674648483    
     1.481149886123821        0.4524807468799025    
     1.491805640700252        0.4480203825588772    
     1.502461395276682        0.4436058499041617    
     1.513117149853113        0.4392366308534206    
     1.523772904429543        0.4349122137934176    
     1.534428659005973        0.4306320934748391    
     1.545084413582404        0.4263957709281199    
     1.555740168158834        0.4222027533802624    
     1.566395922735264        0.4180525541726515    
     1.577051677311695        0.4139446926798612    
     1.587707431888125        0.4098786942294483    
     1.598363186464556        0.4058540900227305    
     1.609018941040986        0.4018704170565430    
     1.619674695617416        0.3979272180459713    
     1.630330450193847        0.3940240413480501    
     1.640986204770277        0.3901604408864288    
     1.651641959346707        0.3863359760769949    
     1.662297713923138        0.3825502117544446    
     1.672953468499568        0.3788027180998043    
     1.683609223075998        0.3750930705688849    
     1.694264977652429        0.3714208498216705    
     1.704920732228859        0.3677856416526290    
     1.715576486805290        0.3641870369219392    
     1.726232241381720        0.3606246314876273    
     1.736887995958150        0.3570980261386029    
     1.747543750534581        0.3536068265285872    
     1.758199505111011        0.3501506431109264    
     1.768855259687441        0.3467290910742811    
     1.779511014263872        0.3433417902791818    
     1.790166768840302        0.3399883651954456    
     1.800822523416733        0.3366684448404391    
     1.811478277993163        0.3333816627181883    
     1.822134032569593        0.3301276567593157    
     1.832789787146024        0.3269060692618042    
     1.843445541722454        0.3237165468325748    
     1.854101296298885        0.3205587403298697    
     1.864757050875315        0.3174323048064335    
     1.875412805451745        0.3143368994534787    
     1.886068560028175        0.3112721875454341    
     1.896724314604606        0.3082378363854578    
     1.907380069181036        0.3052335172517146    
     1.918035823757467        0.3022589053444022    
     1.928691578333897        0.2993136797335191    
     1.939347332910327        0.2963975233073671    
     1.950003087486758        0.2935101227217766    
     1.960658842063188        0.2906511683500458    
     1.971314596639619        0.2878203542335873    
     1.981970351216049        0.2850173780332708    
     1.992626105792479        0.2822419409814520    
     2.003281860368910        0.2794937478346838    
     2.013937614945340        0.2767725068270946    
     2.024593369521770        0.2740779296244263    
     2.035249124098201        0.2714097312787309    
     2.045904878674631        0.2687676301837041    
     2.056560633251062        0.2661513480306566    
     2.067216387827492        0.2635606097651135    
     2.077872142403922        0.2609951435440284    
     2.088527896980353        0.2584546806936091    
     2.099183651556783        0.2559389556677432    
     2.109839406133213        0.2534477060070175    
     2.120495160709644        0.2509806722983207    
     2.131150915286074        0.2485375981350236    
     2.141806669862504        0.2461182300777256    
     2.152462424438935        0.2437223176155640    
     2.163118179015365        0.2413496131280735    
     2.173773933591796        0.2389998718475903    
     2.184429688168226        0.2366728518221940    
     2.195085442744656        0.2343683138791769    
     2.205741197321087        0.2320860215890355    
     2.216396951897517        0.2298257412299758    
     2.227052706473947        0.2275872417529233    
     2.237708461050378        0.2253702947470344    
     2.248364215626808        0.2231746744056984    
     2.259019970203239        0.2210001574930220    
     2.269675724779669        0.2188465233107946    
     2.280331479356099        0.2167135536659216    
     2.290987233932530        0.2146010328383215    
     2.301642988508960        0.2125087475492797    
     2.312298743085390        0.2104364869302520    
     2.322954497661821        0.2083840424921114    
     2.333610252238251        0.2063512080948313    
     2.344266006814681        0.2043377799175980    
     2.354921761391112        0.2023435564293475    
     2.365577515967542        0.2003683383597200    
     2.376233270543973        0.1984119286704239    
     2.386889025120403        0.1964741325270052    
     2.397544779696833        0.1945547572710166    
     2.408200534273264        0.1926536123925784    
     2.418856288849694        0.1907705095033249    
     2.429512043426124        0.1889052623097353    
     2.440167798002555        0.1870576865868357    
     2.450823552578985        0.1852276001522736    
     2.461479307155416        0.1834148228407548    
     2.472135061731846        0.1816191764788396    
     2.482790816308276        0.1798404848600910    
     2.493446570884707        0.1780785737205715    
     2.504102325461137        0.1763332707146822    
     2.514758080037567        0.1746044053913375    
     2.525413834613998        0.1728918091704746    
     2.536069589190428        0.1711953153198865    
     2.546725343766858        0.1695147589323818    
     2.557381098343289        0.1678499769032551    
     2.568036852919719        0.1662008079080773    
     2.578692607496150        0.1645670923807855    
     2.589348362072580        0.1629486724920835    
     2.600004116649010        0.1613453921281342    
     2.610659871225441        0.1597570968695493    
     2.621315625801871        0.1581836339706676    
     2.631971380378301        0.1566248523391171    
     2.642627134954732        0.1550806025156592    
     2.653282889531162        0.1535507366543074    
     2.663938644107593        0.1520351085027201    
     2.674594398684023        0.1505335733828587    
     2.685250153260453        0.1490459881719130    
     2.695905907836884        0.1475722112834824    
     2.706561662413314        0.1461121026490170    
     2.717217416989744        0.1446655236995075    
     2.727873171566175        0.1432323373474250    
     2.738528926142605        0.1418124079689055    
     2.749184680719035        0.1404056013861736    
     2.759840435295466        0.1390117848502049    
     2.770496189871896        0.1376308270236204    
     2.781151944448327        0.1362625979638135    
     2.791807699024757        0.1349069691062995    
     2.802463453601187        0.1335638132482921    
     2.813119208177618        0.1322330045324970    
     2.823774962754048        0.1309144184311239    
     2.834430717330478        0.1296079317301097    
     2.845086471906909        0.1283134225135536    
     2.855742226483339        0.1270307701483576    
     2.866397981059770        0.1257598552690710    
     2.877053735636200        0.1245005597629368    
     2.887709490212631        0.1232527667551335    
     2.898365244789061        0.1220163605942141    
     2.909020999365491        0.1207912268377350    
     2.919676753941921        0.1195772522380746    
     2.930332508518352        0.1183743247284383    
     2.940988263094782        0.1171823334090466    
     2.951644017671212        0.1160011685335033    
     2.962299772247643        0.1148307214953430    
     2.972955526824073        0.1136708848147523    
     2.983611281400504        0.1125215521254649    
     2.994267035976934        0.1113826181618270    
     3.004922790553365        0.1102539787460292    
     3.015578545129795        0.1091355307755042    
     3.026234299706225        0.1080271722105081    
     3.036890054282655        0.1069288020745577    
     3.047545808859086        0.1058403204256431    
     3.058201563435516        0.1047616283387556    
     3.068857318011947        0.1036926279035483    
     3.079513072588377        0.1026332222126541    
     3.090168827164808        0.1015833153501747    
     3.100824581741238        0.1005428123803153    
     3.111480336317668        0.9951161933616301E-01
     3.122136090894099        0.9848964320861012E-01
     3.132791845470529        0.9747679193541607E-01
     3.143447600046959        0.9647297439040822E-01
     3.154103354623389        0.9547810037281981E-01
     3.164759109199820        0.9449208059676152E-01
     3.175414863776250        0.9351482668082710E-01
     3.186070618352681        0.9254625113782694E-01
     3.196726372929111        0.9158626736465353E-01
     3.207382127505542        0.9063478963227177E-01
     3.218037882081972        0.8969173307583535E-01
     3.228693636658402        0.8875701368492593E-01
     3.239349391234833        0.8783054829391439E-01
     3.250005145811263        0.8691225457244160E-01
     3.260660900387693        0.8600205101601739E-01
     3.271316654964123        0.8509985693673626E-01
     3.281972409540554        0.8420559245410690E-01
     3.292628164116985        0.8331917848599706E-01
     3.303283918693415        0.8244053673968731E-01
     3.313939673269845        0.8156958970303657E-01
     3.324595427846276        0.8070626063575576E-01
     3.335251182422706        0.7985047356078807E-01
     3.345906936999136        0.7900215325579531E-01
     3.356562691575567        0.7816122524474725E-01
     3.367218446151997        0.7732761578961454E-01
     3.377874200728427        0.7650125188216156E-01
     3.388529955304858        0.7568206123584019E-01
     3.399185709881288        0.7486997227778106E-01
     3.409841464457719        0.7406491414088177E-01
     3.420497219034149        0.7326681665599101E-01
     3.431152973610579        0.7247561034418659E-01
     3.441808728187010        0.7169122640914660E-01
     3.452464482763440        0.7091359672961242E-01
     3.463120237339870        0.7014265385194163E-01
     3.473775991916301        0.6937833098275047E-01
     3.484431746492731        0.6862056198164476E-01
     3.495087501069162        0.6786928135403586E-01
     3.505743255645592        0.6712442424404398E-01
     3.516399010222022        0.6638592642748509E-01
     3.527054764798453        0.6565372430494096E-01
     3.537710519374883        0.6492775489491177E-01
     3.548366273951313        0.6420795582704900E-01
     3.559022028527744        0.6349426533546881E-01
     3.569677783104174        0.6278662225214433E-01
     3.580333537680604        0.6208496600037466E-01
     3.590989292257035        0.6138923658833194E-01
     3.601645046833465        0.6069937460268294E-01
     3.612300801409896        0.6001532120228624E-01
     3.622956555986326        0.5933701811196212E-01
     3.633612310562756        0.5866440761633563E-01
     3.644268065139187        0.5799743255375178E-01
     3.654923819715617        0.5733603631026007E-01
     3.665579574292047        0.5668016281367012E-01
     3.676235328868478        0.5602975652767576E-01
     3.686891083444908        0.5538476244604681E-01
     3.697546838021339        0.5474512608688793E-01
     3.708202592597769        0.5411079348696390E-01
     3.718858347174199        0.5348171119609009E-01
     3.729514101750630        0.5285782627158708E-01
     3.740169856327060        0.5223908627279895E-01
     3.750825610903490        0.5162543925567428E-01
     3.761481365479921        0.5101683376740974E-01
     3.772137120056351        0.5041321884115320E-01
     3.782792874632781        0.4981454399076840E-01
     3.793448629209212        0.4922075920565924E-01
     3.804104383785642        0.4863181494565167E-01
     3.814760138362073        0.4804766213593430E-01
     3.825415892938503        0.4746825216205645E-01
     3.836071647514933        0.4689353686498191E-01
     3.846727402091364        0.4632346853619877E-01
     3.857383156667794        0.4575799991288458E-01
     3.868038911244224        0.4519708417312521E-01
     3.878694665820655        0.4464067493118772E-01
     3.889350420397085        0.4408872623284592E-01
     3.900006174973516        0.4354119255075817E-01
     3.910661929549946        0.4299802877989688E-01
     3.921317684126376        0.4245919023302857E-01
     3.931973438702807        0.4192463263624450E-01
     3.942629193279237        0.4139431212454075E-01
     3.953284947855667        0.4086818523744702E-01
     3.963940702432098        0.4034620891470426E-01
     3.974596457008528        0.3982834049198954E-01
     3.985252211584958        0.3931453769668811E-01
     3.995907966161389        0.3880475864371237E-01
     4.006563720737820        0.3829896183136615E-01
     4.017219475314250        0.3779710613725468E-01
     4.027875229890680        0.3729915081423937E-01
     4.038530984467110        0.3680505548643640E-01
     4.049186739043541        0.3631478014525943E-01
     4.059842493619971        0.3582828514550516E-01
     4.070498248196402        0.3534553120148130E-01
     4.081154002772831        0.3486647938317670E-01
     4.091809757349262        0.3439109111247314E-01
     4.102465511925693        0.3391932815939752E-01
     4.113121266502123        0.3345115263841528E-01
     4.123777021078554        0.3298652700476298E-01
     4.134432775654984        0.3252541405082102E-01
     4.145088530231414        0.3206777690252469E-01
     4.155744284807844        0.3161357901581397E-01
     4.166400039384275        0.3116278417312162E-01
     4.177055793960705        0.3071535647989821E-01
     4.187711548537136        0.3027126036117454E-01
     4.198367303113566        0.2983046055816064E-01
     4.209023057689996        0.2939292212488081E-01
     4.219678812266427        0.2895861042484428E-01
     4.230334566842857        0.2852749112775166E-01
     4.240990321419288        0.2809953020623522E-01
     4.251646075995718        0.2767469393263431E-01
     4.262301830572148        0.2725294887580518E-01
     4.272957585148578        0.2683426189796256E-01
     4.283613339725009        0.2641860015155640E-01
     4.294269094301439        0.2600593107618042E-01
     4.304924848877870        0.2559622239551270E-01
     4.315580603454300        0.2518944211428884E-01
     4.326236358030730        0.2478555851530622E-01
     4.336892112607161        0.2438454015645974E-01
     4.347547867183591        0.2398635586780809E-01
     4.358203621760022        0.2359097474867050E-01
     4.368859376336452        0.2319836616475360E-01
     4.379515130912882        0.2280849974530791E-01
     4.390170885489312        0.2242134538031331E-01
     4.400826640065743        0.2203687321769461E-01
     4.411482394642174        0.2165505366056387E-01
     4.422138149218604        0.2127585736449259E-01
     4.432793903795034        0.2089925523481140E-01
     4.443449658371464        0.2052521842393655E-01
     4.454105412947895        0.2015371832872493E-01
     4.464761167524325        0.1978472658785482E-01
     4.475416922100756        0.1941821507923413E-01
     4.486072676677186        0.1905415591743439E-01
     4.496728431253616        0.1869252145115064E-01
     4.507384185830047        0.1833328426068784E-01
     4.518039940406477        0.1797641715547115E-01
     4.528695694982908        0.1762189317158270E-01
     4.539351449559338        0.1726968556932224E-01
     4.550007204135768        0.1691976783079244E-01
     4.560662958712198        0.1657211365750838E-01
     4.571318713288629        0.1622669696803088E-01
     4.581974467865059        0.1588349189562360E-01
     4.592630222441490        0.1554247278593283E-01
     4.603285977017920        0.1520361419469104E-01
     4.613941731594350        0.1486689088544300E-01
     4.624597486170781        0.1453227782729380E-01
     4.635253240747211        0.1419975019267987E-01
     4.645908995323642        0.1386928335516141E-01
     4.656564749900072        0.1354085288723682E-01
     4.667220504476502        0.1321443455817811E-01
     4.677876259052932        0.1289000433188831E-01
     4.688532013629363        0.1256753836477861E-01
     4.699187768205793        0.1224701300366749E-01
     4.709843522782224        0.1192840478369933E-01
     4.720499277358654        0.1161169042628354E-01
     4.731155031935084        0.1129684683705377E-01
     4.741810786511515        0.1098385110384620E-01
     4.752466541087945        0.1067268049469864E-01
     4.763122295664376        0.1036331245586715E-01
     4.773778050240806        0.1005572460986325E-01
     4.784433804817236        0.9749894753508971E-02
     4.795089559393666        0.9445800856010831E-02
     4.805745313970097        0.9143421057051786E-02
     4.816401068546527        0.8842733664972771E-02
     4.827056823122958        0.8543717168785268E-02
     4.837712577699389        0.8246350597215955E-02
     4.848368332275818        0.7950616153765872E-02
     4.859024086852249        0.7656507382800807E-02
     4.869679841428679        0.7364043175716496E-02
     4.880335596005110        0.7073283636996734E-02
     4.890991350581540        0.6784343061692299E-02
     4.901647105157970        0.6497397306531583E-02
     4.912302859734401        0.6212685117515269E-02
     4.922958614310831        0.5930504361643475E-02
     4.933614368887262        0.5651204615744369E-02
     4.944270123463692        0.5375177542088771E-02
     4.954925878040123        0.5102846228465997E-02
     4.965581632616552        0.4834654365527040E-02
     4.976237387192983        0.4571055857601926E-02
     4.986893141769413        0.4312505242023761E-02
     4.997548896345844        0.4059449127681911E-02
     5.008204650922274        0.3812318747613087E-02
     5.018860405498704        0.3571523642137417E-02
     5.029516160075135        0.3337446438473276E-02
     5.040171914651565        0.3110438661885621E-02
     5.050827669227996        0.2890817496155807E-02
     5.061483423804426        0.2678863403060658E-02
     5.072139178380857        0.2474818508460170E-02
     5.082794932957286        0.2278885664313211E-02
     5.093450687533717        0.2091228099950019E-02
     5.104106442110147        0.1911969581199423E-02
     5.114762196686578        0.1741195001785598E-02
     5.125417951263008        0.1578951337299816E-02
     5.136073705839438        0.1425248897654514E-02
     5.146729460415869        0.1280062818972053E-02
     5.157385214992299        0.1143334740061667E-02
     5.168040969568730        0.1014974611670067E-02
     5.178696724145160        0.8948625880367700E-03
     5.189352478721591        0.7828509491193124E-03
     5.200008233298020        0.6787659966717054E-03
     5.210663987874451        0.5824098553866429E-03
     5.221319742450881        0.4935620860865039E-03
     5.231975497027312        0.4119809702345482E-03
     5.242631251603743        0.3374042291595104E-03
     5.253287006180172        0.2695487389516879E-03
     5.263942760756603        0.2081083410460045E-03
     5.274598515333033        0.1527476824363169E-03
     5.285254269909464        0.1030866003086110E-03
     5.295910024485894        0.5865762870537729E-04
     5.306565779062325        0.1874904152838363E-04
     5.317221533638754         0.000000000000000    
  0  1  2  0  0.000000   #orbital l, n, z, is_polarized, population
 500    0.7215311818243224E-02     3.600440597303369     # npts, delta, cutoff
     0.000000000000000         2.130411677845916    
    0.7215311818243224E-02     2.130238272666363    
    0.1443062363648645E-01     2.129730249546597    
    0.2164593545472967E-01     2.128884185772451    
    0.2886124727297290E-01     2.127701033535172    
    0.3607655909121612E-01     2.126182121610608    
    0.4329187090945934E-01     2.124329148556939    
    0.5050718272770257E-01     2.122144175142622    
    0.5772249454594579E-01     2.119629615392799    
    0.6493780636418901E-01     2.116788226273853    
    0.7215311818243224E-01     2.113623096109655    
    0.7936843000067546E-01     2.110137631843994    
    0.8658374181891869E-01     2.106335545273865    
    0.9379905363716191E-01     2.102220838384139    
    0.1010143654554051         2.097797787917263    
    0.1082296772736484         2.093070929312427    
    0.1154449890918916         2.088045040147581    
    0.1226603009101348         2.082725123214927    
    0.1298756127283780         2.077116389356434    
    0.1370909245466213         2.071224240180716    
    0.1443062363648645         2.065054250776598    
    0.1515215481831077         2.058612152532004    
    0.1587368600013509         2.051903816159737    
    0.1659521718195942         2.044935235024390    
    0.1731674836378374         2.037712508857136    
    0.1803827954560806         2.030241827937662    
    0.1875981072743238         2.022529457815097    
    0.1948134190925671         2.014581724632392    
    0.2020287309108103         2.006405001111450    