Executable      : siesta
Version         : 5.4.2
Architecture    : x86_64
Compiler version: GNU-14.3.0
Compiler flags  : -march=nocona -mtune=haswell -ftree-vectorize -fPIC -fstack-protector-strong -fno-plt -O2 -ffunction-sections -pipe -isystem <prefix>/include -I<prefix>/_build_env/include -fdebug-prefix-map=<prefix>/work=/usr/local/src/conda/siesta-5.4.2 -fdebug-prefix-map=<prefix>=/usr/local/src/conda-prefix -I<prefix>/lib -fallow-argument-mismatch -O3
Parallelisations: none
NetCDF support
NetCDF-4 support
Lua support
DFT-D3 support

Runtime information:
* Directory : /home/UAB/1671530/documents/24-3-26/run
* Running in serial mode.
>> Start of run:  24-MAR-2026  11:46:28

                           *********************** 
                           *  WELCOME TO SIESTA  * 
                           *********************** 

 NOTE: Siesta V5 introduces some new defaults for basis-set generation
 NOTE: which might lead to slightly different numerical results.
 NOTE: Please see the manual for full details and compatibility measures.


reinit: Reading from file optimization.fdf

reinit: -----------------------------------------------------------------------
reinit: System Name: 
reinit: -----------------------------------------------------------------------
reinit: System Label: optimization
reinit: -----------------------------------------------------------------------

initatom: Reading input for the pseudopotentials and atomic orbitals ----------
Species number:   1 Atomic number:    8 Label: O
Species number:   2 Atomic number:    6 Label: C
Species number:   3 Atomic number:    1 Label: H

Ground state valence configuration (from tables):   2s02  2p04  3d00  4f00
Ground state valence configuration (from tables):   2s02  2p02  3d00  4f00
Ground state valence configuration (from tables):   1s01  2p00  3d00  4f00

---- Processing specs for species: O
Reading pseudopotential information in PSML from:
  O.psml
PSML file version: 1.1
Using libxc ids:  101 130
GGA--PBE XC_GGA_X_PBE--XC_GGA_C_PBE pb
PSML uuid: 3cff85a0-be41-11e7-6c5c-1b1fe64d18ef

---- Processing specs for species: C
Reading pseudopotential information in PSML from:
  C.psml
PSML file version: 1.1
Using libxc ids:  101 130
GGA--PBE XC_GGA_X_PBE--XC_GGA_C_PBE pb
PSML uuid: 297821e0-be41-11e7-6802-e1ff7dfff095

---- Processing specs for species: H
Reading pseudopotential information in PSML from:
  H.psml
PSML file version: 1.1
Using libxc ids:  101 130
GGA--PBE XC_GGA_X_PBE--XC_GGA_C_PBE pb
PSML uuid: f95fa9b0-be40-11e7-634a-9594ffff953f

---- Pseudopotential check for O 

Pseudized shells:
2s( 2.00) rc: 1.36
2p( 4.00) rc: 1.46
3d( 0.00) rc: 1.26
Valence configuration for ps generation: 2s:2p: Total charge:   6.000000

---- Pseudopotential check for C 

Pseudized shells:
2s( 2.00) rc: 1.20
2p( 2.00) rc: 1.26
Valence configuration for ps generation: 2s:2p: Total charge:   4.000000

---- Pseudopotential check for H 

Pseudized shells:
1s( 1.00) rc: 1.01
2p( 0.00) rc: 0.71
Valence configuration for ps generation: 1s: Total charge:   1.000000
For O, standard SIESTA heuristics set lmxkb to 3
 (one more than the basis l, including polarization orbitals).
Use PS.lmax or PS.KBprojectors blocks to override.
For C, standard SIESTA heuristics set lmxkb to 3
 (one more than the basis l, including polarization orbitals).
Use PS.lmax or PS.KBprojectors blocks to override.
For H, standard SIESTA heuristics set lmxkb to 2
 (one more than the basis l, including polarization orbitals).
Use PS.lmax or PS.KBprojectors blocks to override.
O pseudopotential only contains V_ls up to l=2 -- lmxkb reset.
C pseudopotential only contains V_ls up to l=1 -- lmxkb reset.
H pseudopotential only contains V_ls up to l=1 -- lmxkb reset.

<basis_specs>
===============================================================================
O                    Z=   8    Mass=  15.999        Charge= 0.17977+309
Lmxo=2 Lmxkb= 2    BasisType=split      Semic=F
L=0  Nsemic=0  Cnfigmx=2
          i=1  nzeta=2  polorb=0  (2s)
            splnorm:   0.15000    
               vcte:    40.000    
               rinn:  -0.90000    
               qcoe:    0.0000    
               qyuk:    0.0000    
               qwid:   0.10000E-01
                rcs:    0.0000      0.0000    
            lambdas:    1.0000      1.0000    
L=1  Nsemic=0  Cnfigmx=2
          i=1  nzeta=2  polorb=1  (2p)  (to be polarized perturbatively)
            splnorm:   0.15000    
               vcte:    40.000    
               rinn:  -0.90000    
               qcoe:    0.0000    
               qyuk:    0.0000    
               qwid:   0.10000E-01
                rcs:    0.0000      0.0000    
            lambdas:    1.0000      1.0000    
L=2  Nsemic=0  Cnfigmx=3
          i=1  nzeta=0  polorb=0  (3d)  (perturbative polarization orbital) (from 2p)
-------------------------------------------------------------------------------
L=0  Nkbl=1  erefs: 0.17977+309
L=1  Nkbl=1  erefs: 0.17977+309
L=2  Nkbl=1  erefs: 0.17977+309
===============================================================================
</basis_specs>

Using PAO.SplitTailNorm
atom: Called for O                     (Z =   8)
Maximum radius (at nrval) set to   50.00000 8518

read_vps: Pseudopotential generation method:
read_vps: ONCVPSP-3.Hamann's oncvpsp                        
Valence charge in pseudo generation:    6.00000

read_vps: Pseudopotential includes a core correction:
read_vps: Pseudo-core for xc-correction

xc_check: Exchange-correlation functional:
xc_check: GGA Perdew, Burke & Ernzerhof 1996
Got Vlocal (oncv-fit) from psml data
Choosing vlocal chloc cutoff:  6.020499
qtot up to nchloc:    6.00001015
atom: Maximum radius for chlocal:    6.02050
atom: Maximum radius for r*vlocal+2*Zval:    6.02050
Reading KB projs from O psml data
Using scalar-relativistic projectors in PSML file

PSML: Kleinman-Bylander projectors: 
   l= 0   rc=  1.372412   Ekb= 12.113471
   l= 0   rc=  1.372412   Ekb=  1.648048
   l= 1   rc=  1.474132   Ekb= -9.434259
   l= 1   rc=  1.474132   Ekb= -2.298541
   l= 2   rc=  1.277664   Ekb= -2.663910

PSML: Total number of  Kleinman-Bylander projectors:  13
atom: -------------------------------------------------------------------------

atom: SANKEY-TYPE ORBITALS:
atom: Selected multiple-zeta basis: split     

SPLIT: Orbitals with angular momentum L= 0

SPLIT: Basis orbitals for state 2s

SPLIT: PAO cut-off radius determined from an
SPLIT: energy shift=  0.000735 Ry
Split based on tail norm

   izeta = 1
                 lambda =    1.000000
                     rc =    4.566021
                 energy =   -1.760280
                kinetic =    1.535743
    potential(screened) =   -3.296022
       potential(ionic) =  -11.142033

   izeta = 2
                 rmatch =    2.434474
              splitnorm =    0.150000
                 energy =   -1.441584
                kinetic =    2.530209
    potential(screened) =   -3.971793
       potential(ionic) =  -12.502519

SPLIT: Orbitals with angular momentum L= 1

SPLIT: Basis orbitals for state 2p

SPLIT: PAO cut-off radius determined from an
SPLIT: energy shift=  0.000735 Ry
Split based on tail norm

   izeta = 1
                 lambda =    1.000000
                     rc =    5.912921
                 energy =   -0.662875
                kinetic =    4.463269
    potential(screened) =   -5.126144
       potential(ionic) =  -12.659411

   izeta = 2
                 rmatch =    3.103756
              splitnorm =    0.150000
                 energy =   -0.538095
                kinetic =    5.926477
    potential(screened) =   -6.464572
       potential(ionic) =  -14.688886

POLgen: Perturbative polarization orbital with L=  2

POLgen: Polarization orbital for state 2p
Split based on tail norm

   izeta = 1
                     rc =    5.912921
                 energy =    1.865729
                kinetic =    3.536681
    potential(screened) =   -1.670952
       potential(ionic) =   -7.378590
atom: Total number of Sankey-type orbitals: 13

atm_pop: Valence configuration (for local Pseudopot. screening):
 2s( 2.00)                                                            
 2p( 4.00)                                                            
 3d( 0.00)                                                            
Vna: chval, zval:    6.00000   6.00000

Vna:  Cut-off radius for the neutral-atom potential:   5.912921
comcore: Pseudo-core radius Rcore=  1.354557

atom: _________________________________________________________________________

<basis_specs>
===============================================================================
C                    Z=   6    Mass=  12.011        Charge= 0.17977+309
Lmxo=2 Lmxkb= 1    BasisType=split      Semic=F
L=0  Nsemic=0  Cnfigmx=2
          i=1  nzeta=2  polorb=0  (2s)
            splnorm:   0.15000    
               vcte:    40.000    
               rinn:  -0.90000    
               qcoe:    0.0000    
               qyuk:    0.0000    
               qwid:   0.10000E-01
                rcs:    0.0000      0.0000    
            lambdas:    1.0000      1.0000    
L=1  Nsemic=0  Cnfigmx=2
          i=1  nzeta=2  polorb=1  (2p)  (to be polarized perturbatively)
            splnorm:   0.15000    
               vcte:    40.000    
               rinn:  -0.90000    
               qcoe:    0.0000    
               qyuk:    0.0000    
               qwid:   0.10000E-01
                rcs:    0.0000      0.0000    
            lambdas:    1.0000      1.0000    
L=2  Nsemic=0  Cnfigmx=3
          i=1  nzeta=0  polorb=0  (3d)  (perturbative polarization orbital) (from 2p)
-------------------------------------------------------------------------------
L=0  Nkbl=1  erefs: 0.17977+309
L=1  Nkbl=1  erefs: 0.17977+309
===============================================================================
</basis_specs>

Using PAO.SplitTailNorm
atom: Called for C                     (Z =   6)
NOTE: C pseudopotential has channels up to l= 1
NOTE: PAOs with higher l will be generated with V_local
Maximum radius (at nrval) set to   50.00000 8518

read_vps: Pseudopotential generation method:
read_vps: ONCVPSP-3.Hamann's oncvpsp                        
Valence charge in pseudo generation:    4.00000

read_vps: Pseudopotential includes a core correction:
read_vps: Pseudo-core for xc-correction

xc_check: Exchange-correlation functional:
xc_check: GGA Perdew, Burke & Ernzerhof 1996
Got Vlocal (oncv-fit) from psml data
Choosing vlocal chloc cutoff:  4.122282
qtot up to nchloc:    4.00001153
atom: Maximum radius for chlocal:    4.12228
atom: Maximum radius for r*vlocal+2*Zval:    4.12228
Reading KB projs from C psml data
Using scalar-relativistic projectors in PSML file

PSML: Kleinman-Bylander projectors: 
   l= 0   rc=  1.219773   Ekb= 12.963096
   l= 0   rc=  1.219773   Ekb=  0.771007
   l= 1   rc=  1.278952   Ekb= -8.399923
   l= 1   rc=  1.278952   Ekb= -1.755033

PSML: Total number of  Kleinman-Bylander projectors:   8
atom: -------------------------------------------------------------------------

atom: SANKEY-TYPE ORBITALS:
atom: Selected multiple-zeta basis: split     

SPLIT: Orbitals with angular momentum L= 0

SPLIT: Basis orbitals for state 2s

SPLIT: PAO cut-off radius determined from an
SPLIT: energy shift=  0.000735 Ry
Split based on tail norm

   izeta = 1
                 lambda =    1.000000
                     rc =    5.865727
                 energy =   -1.009782
                kinetic =    0.907850
    potential(screened) =   -1.917632
       potential(ionic) =   -5.443189

   izeta = 2
                 rmatch =    3.302919
              splitnorm =    0.150000
                 energy =   -0.812047
                kinetic =    1.580868
    potential(screened) =   -2.392915
       potential(ionic) =   -6.200698

SPLIT: Orbitals with angular momentum L= 1

SPLIT: Basis orbitals for state 2p

SPLIT: PAO cut-off radius determined from an
SPLIT: energy shift=  0.000735 Ry
Split based on tail norm

   izeta = 1
                 lambda =    1.000000
                     rc =    7.564822
                 energy =   -0.387582
                kinetic =    2.372253
    potential(screened) =   -2.759835
       potential(ionic) =   -6.120604

   izeta = 2
                 rmatch =    4.252389
              splitnorm =    0.150000
                 energy =   -0.314961
                kinetic =    3.225377
    potential(screened) =   -3.540338
       potential(ionic) =   -7.207912
*Note: V_local used for l= 2

** Using vlocal for PAOs with L= 2

POLgen: Perturbative polarization orbital with L=  2

POLgen: Polarization orbital for state 2p
*Note: V_local used for lpol= 2

** Using vlocal for PAOs with L= 2
Split based on tail norm

   izeta = 1
                     rc =    7.564822
                 energy =    0.923681
                kinetic =    1.875515
    potential(screened) =   -0.951834
       potential(ionic) =   -3.587740
atom: Total number of Sankey-type orbitals: 13

atm_pop: Valence configuration (for local Pseudopot. screening):
 2s( 2.00)                                                            
 2p( 2.00)                                                            
 3d( 0.00)                                                            
Vna: chval, zval:    4.00000   4.00000

Vna:  Cut-off radius for the neutral-atom potential:   7.564822
comcore: Pseudo-core radius Rcore=  1.671741

atom: _________________________________________________________________________

<basis_specs>
===============================================================================
H                    Z=   1    Mass=  1.0080        Charge= 0.17977+309
Lmxo=1 Lmxkb= 1    BasisType=split      Semic=F
L=0  Nsemic=0  Cnfigmx=1
          i=1  nzeta=2  polorb=1  (1s)  (to be polarized perturbatively)
            splnorm:   0.15000    
               vcte:    40.000    
               rinn:  -0.90000    
               qcoe:    0.0000    
               qyuk:    0.0000    
               qwid:   0.10000E-01
                rcs:    0.0000      0.0000    
            lambdas:    1.0000      1.0000    
L=1  Nsemic=0  Cnfigmx=2
          i=1  nzeta=0  polorb=0  (2p)  (perturbative polarization orbital) (from 1s)
-------------------------------------------------------------------------------
L=0  Nkbl=1  erefs: 0.17977+309
L=1  Nkbl=1  erefs: 0.17977+309
===============================================================================
</basis_specs>

Using PAO.SplitTailNorm
atom: Called for H                     (Z =   1)
Maximum radius (at nrval) set to   50.00000 8518

read_vps: Pseudopotential generation method:
read_vps: ONCVPSP-3.Hamann's oncvpsp                        
Valence charge in pseudo generation:    1.00000

xc_check: Exchange-correlation functional:
xc_check: GGA Perdew, Burke & Ernzerhof 1996
Got Vlocal (oncv-fit) from psml data
Choosing vlocal chloc cutoff:  1.926399
qtot up to nchloc:    0.99999831
atom: Maximum radius for chlocal:    1.92640
atom: Maximum radius for r*vlocal+2*Zval:    1.92640
Reading KB projs from H psml data
Using scalar-relativistic projectors in PSML file

PSML: Kleinman-Bylander projectors: 
   l= 0   rc=  1.022342   Ekb= -3.402247
   l= 0   rc=  1.022342   Ekb= -1.068968
   l= 1   rc=  0.714575   Ekb= -1.006642

PSML: Total number of  Kleinman-Bylander projectors:   5
atom: -------------------------------------------------------------------------

atom: SANKEY-TYPE ORBITALS:
atom: Selected multiple-zeta basis: split     

SPLIT: Orbitals with angular momentum L= 0

SPLIT: Basis orbitals for state 1s

SPLIT: PAO cut-off radius determined from an
SPLIT: energy shift=  0.000735 Ry
Split based on tail norm

   izeta = 1
                 lambda =    1.000000
                     rc =    7.238756
                 energy =   -0.476315
                kinetic =    0.887622
    potential(screened) =   -1.363936
       potential(ionic) =   -1.882865

   izeta = 2
                 rmatch =    4.044510
              splitnorm =    0.150000
                 energy =   -0.376652
                kinetic =    1.480380
    potential(screened) =   -1.857033
       potential(ionic) =   -2.405174

POLgen: Perturbative polarization orbital with L=  1

POLgen: Polarization orbital for state 1s
Split based on tail norm

   izeta = 1
                     rc =    7.238756
                 energy =    0.508786
                kinetic =    1.081322
    potential(screened) =   -0.572537
       potential(ionic) =   -1.035092
atom: Total number of Sankey-type orbitals:  5

atm_pop: Valence configuration (for local Pseudopot. screening):
 1s( 1.00)                                                            
 2p( 0.00)                                                            
Vna: chval, zval:    1.00000   1.00000

Vna:  Cut-off radius for the neutral-atom potential:   7.238756

atom: _________________________________________________________________________

prinput: Basis input 

PAO.BasisType split     

%block ChemicalSpeciesLabel
    1    8 O                       # Species index, atomic number, species label
    2    6 C                       # Species index, atomic number, species label
    3    1 H                       # Species index, atomic number, species label
%endblock ChemicalSpeciesLabel

%block PAO.Basis                 # Define Basis set
# WARNING: This information might be incomplete!
O                     2                    # Species label, number of l-shells
 n=2   0   2                         # n, l, Nzeta 
   4.566      2.434   
   1.000      1.000   
 n=2   1   2 P   1                   # n, l, Nzeta, Polarization, NzetaPol
   5.913      3.104   
   1.000      1.000   
C                     2                    # Species label, number of l-shells
 n=2   0   2                         # n, l, Nzeta 
   5.866      3.303   
   1.000      1.000   
 n=2   1   2 P   1                   # n, l, Nzeta, Polarization, NzetaPol
   7.565      4.252   
   1.000      1.000   
H                     1                    # Species label, number of l-shells
 n=1   0   2 P   1                   # n, l, Nzeta, Polarization, NzetaPol
   7.239      4.045   
   1.000      1.000   
%endblock PAO.Basis

prinput: ----------------------------------------------------------------------

Dumping basis to NetCDF file O.ion.nc
Dumping basis to NetCDF file C.ion.nc
Dumping basis to NetCDF file H.ion.nc
coor:   Atomic-coordinates input format  =     Cartesian coordinates
coor:                                          (in Angstroms)

siesta: Atomic coordinates (Bohr) and species
siesta:     10.32565   1.41729   0.00000  1        1
siesta:     11.96216  -1.41729   0.00000  1        2
siesta:      5.41596   0.47243   0.00000  2        3
siesta:      7.05265   1.41729   0.00000  2        4
siesta:      8.68915   0.47243   0.00000  2        5
siesta:      3.77945   1.41729   0.00000  2        6
siesta:      5.41596  -1.41729   0.00000  2        7
siesta:     11.96216   0.47243   0.00000  2        8
siesta:     13.59885   1.41729   0.00000  2        9
siesta:      5.41596   1.64406   0.00000  3       10
siesta:      7.80570   2.31491   0.00000  3       11
siesta:      6.29940   2.31491   0.00000  3       12
siesta:      7.93609  -0.42500   0.00000  3       13
siesta:      9.44221  -0.42500   0.00000  3       14
siesta:      4.36527   2.43189   0.00000  3       15
siesta:      2.76486   2.00311   0.00000  3       16
siesta:      3.19364   0.40270   0.00000  3       17
siesta:      4.24432  -1.41729   0.00000  3       18
siesta:      5.41596  -2.58892   0.00000  3       19
siesta:      6.58759  -1.41729   0.00000  3       20
siesta:     14.18466   0.40270   0.00000  3       21
siesta:     14.61344   2.00311   0.00000  3       22
siesta:     13.01303   2.43189   0.00000  3       23

siesta: System type = molecule  

initatomlists: Number of atoms, orbitals, and projectors:     23   187   152

coxmol: Writing XMOL coordinates into file optimization.xyz                                                                                                                                                                                                                    

siesta: ******************** Simulation parameters ****************************
siesta:
siesta: The following are some of the parameters of the simulation.
siesta: A complete list of the parameters used, including default values,
siesta: can be found in file out.fdf
siesta:
redata: Spin configuration                          = none
redata: Number of spin components                   = 1
redata: Time-Reversal Symmetry                      = T
redata: Spin spiral                                 = F
redata: Long output                                 =   F
redata: Number of Atomic Species                    =        3
redata: Charge density info will appear in .RHO file
redata: Write Mulliken charges (when)               = none
redata: Write Mulliken Pop.                         = NO
redata: Write Hirshfeld charges (when)              = none
redata: Write Voronoi charges (when)                = none
redata: Write spin charge (when)                    = none
redata: Matel table size (NRTAB)                    =     1024
redata: Mesh Cutoff                                 =   300.0000 Ry
redata: Net charge of the system                    =     0.0000 |e|
redata: Min. number of SCF Iter                     =        0
redata: Max. number of SCF Iter                     =     1000
redata: SCF convergence failure will abort job
redata: SCF mix quantity                            = Hamiltonian
redata: Mix DM or H after convergence               =   F
redata: Recompute H after scf cycle                 =   F
redata: Mix DM in first SCF step                    =   T
redata: Write Pulay info on disk                    =   F
redata: New DM Occupancy tolerance                  = 0.000000000001
redata: No kicks to SCF
redata: DM Mixing Weight for Kicks                  =     0.5000
redata: Require Harris convergence for SCF          =   F
redata: Harris energy tolerance for SCF             =     0.000100 eV
redata: Require DM convergence for SCF              =   T
redata: DM tolerance for SCF                        =     0.000100
redata: Require EDM convergence for SCF             =   F
redata: EDM tolerance for SCF                       =     0.001000 eV
redata: Require H convergence for SCF               =   T
redata: Hamiltonian tolerance for SCF               =     0.001000 eV
redata: Require (free) Energy convergence for SCF   =   F
redata: (free) Energy tolerance for SCF             =     0.000100 eV
redata: Using DFT-D3 dispersion                     =   F
redata: Using Saved Data (generic)                  =   F
redata: Use continuation files for DM               =   T
redata: Neglect nonoverlap interactions             =   F
redata: Method of Calculation                       = Diagonalization
redata: Electronic Temperature                      =   300.0000 K
redata: Fix the spin of the system                  =   F
redata: Max. number of TDED Iter                    =        1
redata: Number of TDED substeps                     =        3
redata: Dynamics option                             = CG coord. optimization
redata: Variable cell                               =   F
redata: Use continuation files for CG               =   F
redata: Max atomic displ per move                   =     0.1058 Ang
redata: Maximum number of optimization moves        =       10
redata: Force tolerance                             =     0.0050 eV/Ang
mix.SCF: Pulay mixing                            = Pulay
mix.SCF:    Variant                              = stable
mix.SCF:    History steps                        = 2
mix.SCF:    Linear mixing weight                 =     0.250000
mix.SCF:    Mixing weight                        =     0.250000
mix.SCF:    SVD condition                        = 0.1000E-07
redata: Save all siesta data in one NC              =   F
redata: ***********************************************************************

%block SCF.Mixers
  Pulay
%endblock SCF.Mixers

%block SCF.Mixer.Pulay
  # Mixing method
  method pulay
  variant stable

  # Mixing options
  weight 0.2500
  weight.linear 0.2500
  history 2
%endblock SCF.Mixer.Pulay

DM_history_depth set to one: no extrapolation allowed by default for geometry relaxation
Size of DM history Fstack: 1
Total number of electrons:    54.000000
Total ionic charge:    54.000000

siesta: k-grid: Number of k-points = 1
siesta: k-point is Gamma-only

diag: Algorithm                                     = D&C
diag: Used triangular part                          = Lower
diag: Absolute tolerance                            =  0.100E-15
diag: Orthogonalization factor                      =  0.100E-05
diag: Memory factor                                 =  1.0000


ts: **************************************************************
ts: Save H and S matrices                           =    F
ts: Save TSHS files in MD/FC simulation             =    F
ts: Save DM and EDM matrices                        =    F
ts: Only save the overlap matrix S                  =    F
ts: **************************************************************

************************ Begin: TS CHECKS AND WARNINGS ************************
************************ End: TS CHECKS AND WARNINGS **************************


                     ====================================
                        Begin CG opt. move =      0
                     ====================================

outcell: Unit cell vectors (Ang):
       16.270000    0.000000    0.000000
        0.000000   12.656900    0.000000
        0.000000    0.000000   10.000000

outcell: Cell vector modules (Ang)   :   16.270000   12.656900   10.000000
outcell: Cell angles (23,13,12) (deg):     90.0000     90.0000     90.0000
outcell: Cell volume (Ang**3)        :   2059.2776
<dSpData1D:S at geom step 0
  <sparsity:sparsity for geom step 0
    nrows_g=187 nrows=187 sparsity=.9965 nnzs=34847, refcount: 7>
  <dData1D:(new from dSpData1D) n=34847, refcount: 1>
refcount: 1>
new_DM -- step:     1
Initializing Density Matrix...

Attempting to read DM from file... Succeeded...
DM from file:
<dSpData2D:IO-DM: optimization.DM
  <sparsity:IO-DM: optimization.DM
    nrows_g=187 nrows=187 sparsity=.9965 nnzs=34847, refcount: 1>
  <dData2D:(new from dSpData2D) n=34847 m=1, refcount: 1>
refcount: 1>
DM to be used:
<dSpData2D:Re-structured SpM
  <sparsity:sparsity for geom step 0
    nrows_g=187 nrows=187 sparsity=.9965 nnzs=34847, refcount: 8>
  <dData2D:(new in restruct) n=34847 m=1, refcount: 1>
refcount: 1>
No. of atoms with KB's overlaping orbs in proc 0. Max # of overlaps:      23     180

InitMesh: MESH = 180 x 144 x 108 = 2799360
InitMesh: Mesh cutoff (required, used) =   300.000   322.366 Ry
New grid distribution [1]: sub = 2

stepf: Fermi-Dirac step function

siesta: Program's energy decomposition (eV):
siesta: Ebs     =     -2037.601149
siesta: Eions   =      3719.754406
siesta: Ena     =      1060.409952
siesta: Ekin    =      1912.753379
siesta: Enl     =      -291.760664
siesta: Eso     =         0.000000
siesta: Edftu   =         0.000000
siesta: DEna    =       -25.579655
siesta: DUscf   =        59.800758
siesta: DUext   =         0.000000
siesta: Ex      =      -765.732383
siesta: Ec      =       -65.564857
siesta: Exc     =      -831.297240
siesta: EbV     =         0.000000
siesta: eta*DQ  =         0.000000
siesta: Emadel  =         0.000000
siesta: Emeta   =         0.000000
siesta: Emolmec =         0.000000
siesta: Ekinion =         0.000000
siesta: Eharris =     -1542.153163
siesta: Etot    =     -1835.427875
siesta: FreeEng =     -1835.427876

        iscf     Eharris(eV)        E_KS(eV)     FreeEng(eV)     dDmax    Ef(eV) dHmax(eV)
   scf:    1    -1542.153163    -1835.427875    -1835.427876 13.651954  2.765515 61.767835
timer: Routine,Calls,Time,% = IterSCF        1       2.509  29.20
   scf:    2    -2015.213096    -1963.417771    -1963.421608 14.659531 -0.632324  9.986632
   scf:    3    -1972.087847    -1969.851351    -1969.851367  4.980341 -1.140957  4.520066
   scf:    4    -1971.028529    -1970.534013    -1970.534150  0.654671 -0.880692  2.072303
   scf:    5    -1971.005108    -1970.802839    -1970.803532  0.311219 -0.637302  0.550595
   scf:    6    -1970.876321    -1970.847764    -1970.848922  0.373997 -0.493820  0.292029
   scf:    7    -1970.854561    -1970.852434    -1970.853609  0.116771 -0.472227  0.223853
   scf:    8    -1970.855825    -1970.854329    -1970.855576  0.074670 -0.444669  0.145367
   scf:    9    -1970.856541    -1970.855621    -1970.857048  0.044691 -0.405252  0.119738
   scf:   10    -1970.855584    -1970.855883    -1970.857434  0.097213 -0.376154  0.047907
   scf:   11    -1970.855906    -1970.856004    -1970.857561  0.043036 -0.379035  0.038888
   scf:   12    -1970.856034    -1970.856027    -1970.857596  0.015397 -0.375844  0.017747
   scf:   13    -1970.856022    -1970.856025    -1970.857608  0.003919 -0.373427  0.013452
   scf:   14    -1970.856016    -1970.856023    -1970.857615  0.011115 -0.370988  0.004360
   scf:   15    -1970.856026    -1970.856026    -1970.857616  0.004196 -0.371387  0.004016
   scf:   16    -1970.856027    -1970.856026    -1970.857617  0.001722 -0.371178  0.001745
   scf:   17    -1970.856028    -1970.856027    -1970.857617  0.000772 -0.371085  0.001197
   scf:   18    -1970.856030    -1970.856028    -1970.857617  0.001290 -0.370998  0.000349
   scf:   19    -1970.856029    -1970.856029    -1970.857617  0.000260 -0.371043  0.000298
   scf:   20    -1970.856029    -1970.856029    -1970.857617  0.000198 -0.371051  0.000171
   scf:   21    -1970.856030    -1970.856029    -1970.857617  0.000145 -0.371072  0.000110
   scf:   22    -1970.856030    -1970.856030    -1970.857617  0.000212 -0.371104  0.000065
   scf:   23    -1970.856030    -1970.856030    -1970.857617  0.000031 -0.371115  0.000047

SCF Convergence by DM+H criterion
max |DM_out - DM_in|         :     0.0000308194
max |H_out - H_in|      (eV) :     0.0000469384
SCF cycle converged after 23 iterations

Using DM_out to compute the final energy and forces
No. of atoms with KB's overlaping orbs in proc 0. Max # of overlaps:      23     180

siesta: E_KS(eV) =            -1970.8560

siesta: E_KS - E_eggbox =     -1970.8560

siesta: Atomic forces (eV/Ang):
----------------------------------------
   Tot   -0.002506    0.053353    0.000000
----------------------------------------
   Max   80.048166
   Res   36.938860    sqrt( Sum f_i^2 / 3N )
----------------------------------------
   Max   80.048166    constrained

Stress tensor Voigt[x,y,z,yz,xz,xy] (kbar):     -502.53     -475.17       -0.00       -0.00        0.00       -2.18
(Free)E + p*V (eV/cell)    -1551.9746
Target enthalpy (eV/cell)    -1970.8576

                     ====================================
                        Begin CG opt. move =      1
                     ====================================

outcell: Unit cell vectors (Ang):
       16.270000    0.000000    0.000000
        0.000000   12.656900    0.000000
        0.000000    0.000000   10.000000

outcell: Cell vector modules (Ang)   :   16.270000   12.656900   10.000000
outcell: Cell angles (23,13,12) (deg):     90.0000     90.0000     90.0000
outcell: Cell volume (Ang**3)        :   2059.2776
<dSpData1D:S at geom step 1
  <sparsity:sparsity for geom step 1
    nrows_g=187 nrows=187 sparsity=.9965 nnzs=34847, refcount: 7>
  <dData1D:(new from dSpData1D) n=34847, refcount: 1>
refcount: 1>
new_DM -- step:     2
Re-using DM from previous geometries...
Number of DMs in history: 1
 DM extrapolation coefficients: 
1   1.00000
New DM after history re-use:
<dSpData2D:SpM extrapolated using coords
  <sparsity:sparsity for geom step 1
    nrows_g=187 nrows=187 sparsity=.9965 nnzs=34847, refcount: 9>
  <dData2D:(temp array for extrapolation) n=34847 m=1, refcount: 1>
refcount: 1>
Note: For starting DM, Qtot, Tr[D*S] =         54.00000000         54.59750583
No. of atoms with KB's overlaping orbs in proc 0. Max # of overlaps:      23     180

InitMesh: MESH = 180 x 144 x 108 = 2799360
InitMesh: Mesh cutoff (required, used) =   300.000   322.366 Ry
New grid distribution [1]: sub = 2

        iscf     Eharris(eV)        E_KS(eV)     FreeEng(eV)     dDmax    Ef(eV) dHmax(eV)
   scf:    1    -1996.396735    -1998.864893    -1998.864962  0.955947 -0.224189  4.687344
   scf:    2    -1974.344224    -1992.085090    -1992.085090  3.160016 -1.567580 12.514460
   scf:    3    -2002.302042    -1999.995717    -1999.995719  1.221526 -0.602146  0.885007
   scf:    4    -2000.037448    -2000.026855    -2000.026859  0.302839 -0.510833  0.229731
   scf:    5    -2000.032037    -2000.029850    -2000.029856  0.015818 -0.500883  0.080677
   scf:    6    -2000.031083    -2000.030575    -2000.030582  0.022629 -0.490590  0.031511
   scf:    7    -2000.030751    -2000.030673    -2000.030680  0.006688 -0.485883  0.015443
   scf:    8    -2000.030715    -2000.030695    -2000.030702  0.003338 -0.482878  0.009992
   scf:    9    -2000.030709    -2000.030703    -2000.030710  0.007170 -0.479239  0.004804
   scf:   10    -2000.030704    -2000.030704    -2000.030711  0.002009 -0.478280  0.001489
   scf:   11    -2000.030705    -2000.030704    -2000.030712  0.001109 -0.478181  0.000944
   scf:   12    -2000.030704    -2000.030704    -2000.030712  0.000514 -0.478192  0.000457
   scf:   13    -2000.030704    -2000.030704    -2000.030712  0.000538 -0.478232  0.000291
   scf:   14    -2000.030704    -2000.030704    -2000.030712  0.000272 -0.478265  0.000162
   scf:   15    -2000.030704    -2000.030704    -2000.030712  0.000191 -0.478294  0.000081
   scf:   16    -2000.030704    -2000.030704    -2000.030712  0.000050 -0.478305  0.000044

SCF Convergence by DM+H criterion
max |DM_out - DM_in|         :     0.0000504067
max |H_out - H_in|      (eV) :     0.0000436622
SCF cycle converged after 16 iterations

Using DM_out to compute the final energy and forces
No. of atoms with KB's overlaping orbs in proc 0. Max # of overlaps:      23     180

siesta: E_KS(eV) =            -2000.0307

siesta: Atomic forces (eV/Ang):
----------------------------------------
   Tot    0.034082    0.012834   -0.000000
----------------------------------------
   Max   64.201191
   Res   30.091032    sqrt( Sum f_i^2 / 3N )
----------------------------------------
   Max   64.201191    constrained

Stress tensor Voigt[x,y,z,yz,xz,xy] (kbar):     -474.78     -445.06       -0.00       -0.00       -0.00       -1.99
(Free)E + p*V (eV/cell)    -1605.9399
Target enthalpy (eV/cell)    -2000.0307

                     ====================================
                        Begin CG opt. move =      2
                     ====================================

outcell: Unit cell vectors (Ang):
       16.270000    0.000000    0.000000
        0.000000   12.656900    0.000000
        0.000000    0.000000   10.000000

outcell: Cell vector modules (Ang)   :   16.270000   12.656900   10.000000
outcell: Cell angles (23,13,12) (deg):     90.0000     90.0000     90.0000
outcell: Cell volume (Ang**3)        :   2059.2776
<dSpData1D:S at geom step 2
  <sparsity:sparsity for geom step 2
    nrows_g=187 nrows=187 sparsity=.9965 nnzs=34847, refcount: 7>
  <dData1D:(new from dSpData1D) n=34847, refcount: 1>
refcount: 1>
new_DM -- step:     3
Re-using DM from previous geometries...
Number of DMs in history: 1
 DM extrapolation coefficients: 
1   1.00000
New DM after history re-use:
<dSpData2D:SpM extrapolated using coords
  <sparsity:sparsity for geom step 2
    nrows_g=187 nrows=187 sparsity=.9965 nnzs=34847, refcount: 9>
  <dData2D:(temp array for extrapolation) n=34847 m=1, refcount: 1>
refcount: 1>
Note: For starting DM, Qtot, Tr[D*S] =         54.00000000         54.78065699
No. of atoms with KB's overlaping orbs in proc 0. Max # of overlaps:      23     180

InitMesh: MESH = 180 x 144 x 108 = 2799360
InitMesh: Mesh cutoff (required, used) =   300.000   322.366 Ry
New grid distribution [1]: sub = 2

        iscf     Eharris(eV)        E_KS(eV)     FreeEng(eV)     dDmax    Ef(eV) dHmax(eV)
   scf:    1    -2029.264536    -2032.770113    -2032.770113  1.142619 -0.394897  6.313009
   scf:    2    -1992.541518    -2021.721357    -2021.721360  2.163323 -1.414402 15.634402
   scf:    3    -2038.470950    -2034.777151    -2034.777151  1.511460 -0.768300  0.605434
   scf:    4    -2034.811195    -2034.799088    -2034.799088  0.098028 -0.724911  0.218377
   scf:    5    -2034.804516    -2034.802167    -2034.802167  0.019822 -0.714650  0.077856
   scf:    6    -2034.803331    -2034.802851    -2034.802851  0.011312 -0.707940  0.019915
   scf:    7    -2034.802980    -2034.802918    -2034.802918  0.005108 -0.704585  0.015068
   scf:    8    -2034.802975    -2034.802951    -2034.802951  0.008776 -0.699255  0.007494
   scf:    9    -2034.802952    -2034.802951    -2034.802951  0.003250 -0.696846  0.003740
   scf:   10    -2034.802954    -2034.802953    -2034.802953  0.000779 -0.696537  0.001860
   scf:   11    -2034.802954    -2034.802954    -2034.802954  0.000315 -0.696132  0.001333
   scf:   12    -2034.802954    -2034.802954    -2034.802954  0.000217 -0.696410  0.000747
   scf:   13    -2034.802954    -2034.802954    -2034.802954  0.000254 -0.696651  0.000511
   scf:   14    -2034.802954    -2034.802954    -2034.802954  0.000238 -0.696815  0.000224
   scf:   15    -2034.802954    -2034.802954    -2034.802954  0.000106 -0.696859  0.000132
   scf:   16    -2034.802954    -2034.802954    -2034.802954  0.000037 -0.696861  0.000077

SCF Convergence by DM+H criterion
max |DM_out - DM_in|         :     0.0000370003
max |H_out - H_in|      (eV) :     0.0000771184
SCF cycle converged after 16 iterations

Using DM_out to compute the final energy and forces
No. of atoms with KB's overlaping orbs in proc 0. Max # of overlaps:      23     180

siesta: E_KS(eV) =            -2034.8030

siesta: Atomic forces (eV/Ang):
----------------------------------------
   Tot    0.018772   -0.020746    0.000000
----------------------------------------
   Max   52.705594
   Res   23.792924    sqrt( Sum f_i^2 / 3N )
----------------------------------------
   Max   52.705594    constrained

Stress tensor Voigt[x,y,z,yz,xz,xy] (kbar):     -438.06     -406.82       -0.01       -0.00        0.00       -2.33
(Free)E + p*V (eV/cell)    -1672.8266
Target enthalpy (eV/cell)    -2034.8030

                     ====================================
                        Begin CG opt. move =      3
                     ====================================

outcell: Unit cell vectors (Ang):
       16.270000    0.000000    0.000000
        0.000000   12.656900    0.000000
        0.000000    0.000000   10.000000

outcell: Cell vector modules (Ang)   :   16.270000   12.656900   10.000000
outcell: Cell angles (23,13,12) (deg):     90.0000     90.0000     90.0000
outcell: Cell volume (Ang**3)        :   2059.2776
<dSpData1D:S at geom step 3
  <sparsity:sparsity for geom step 3
    nrows_g=187 nrows=187 sparsity=.9962 nnzs=34835, refcount: 7>
  <dData1D:(new from dSpData1D) n=34835, refcount: 1>
refcount: 1>
new_DM -- step:     4
Re-using DM from previous geometries...
Number of DMs in history: 1
 DM extrapolation coefficients: 
1   1.00000
New DM after history re-use:
<dSpData2D:SpM extrapolated using coords
  <sparsity:sparsity for geom step 3
    nrows_g=187 nrows=187 sparsity=.9962 nnzs=34835, refcount: 9>
  <dData2D:(temp array for extrapolation) n=34835 m=1, refcount: 1>
refcount: 1>
Note: For starting DM, Qtot, Tr[D*S] =         54.00000000         54.86552119
No. of atoms with KB's overlaping orbs in proc 0. Max # of overlaps:      23     180

InitMesh: MESH = 180 x 144 x 108 = 2799360
InitMesh: Mesh cutoff (required, used) =   300.000   322.366 Ry
New grid distribution [1]: sub = 2

        iscf     Eharris(eV)        E_KS(eV)     FreeEng(eV)     dDmax    Ef(eV) dHmax(eV)
   scf:    1    -2057.671981    -2063.121037    -2063.129645  3.241948 -0.125117  8.634930
   scf:    2    -1962.992219    -2034.341380    -2034.341395  8.624115 -1.354855 21.145789
   scf:    3    -2072.099855    -2066.596705    -2066.596768  7.885282 -0.542616  1.038753
   scf:    4    -2066.700326    -2066.658480    -2066.659050  0.045929 -0.504558  0.367658
   scf:    5    -2066.674254    -2066.668985    -2066.671836  0.035321 -0.473249  0.080481
   scf:    6    -2066.668626    -2066.668893    -2066.673049  0.017610 -0.468551  0.047898
   scf:    7    -2066.667247    -2066.668113    -2066.673523  0.017405 -0.466759  0.015173
   scf:    8    -2066.667462    -2066.667791    -2066.673599  0.007564 -0.466469  0.008099
   scf:    9    -2066.667534    -2066.667664    -2066.673616  0.004912 -0.466084  0.004471
   scf:   10    -2066.667533    -2066.667598    -2066.673620  0.003226 -0.465666  0.002420
   scf:   11    -2066.667475    -2066.667537    -2066.673621  0.003164 -0.465207  0.000991
   scf:   12    -2066.667530    -2066.667533    -2066.673621  0.000498 -0.465128  0.000534
   scf:   13    -2066.667541    -2066.667537    -2066.673621  0.000221 -0.465106  0.000247
   scf:   14    -2066.667547    -2066.667542    -2066.673621  0.000147 -0.465117  0.000158
   scf:   15    -2066.667552    -2066.667547    -2066.673621  0.000134 -0.465139  0.000092
   scf:   16    -2066.667551    -2066.667549    -2066.673621  0.000068 -0.465152  0.000058

SCF Convergence by DM+H criterion
max |DM_out - DM_in|         :     0.0000682260
max |H_out - H_in|      (eV) :     0.0000578194
SCF cycle converged after 16 iterations

Using DM_out to compute the final energy and forces
No. of atoms with KB's overlaping orbs in proc 0. Max # of overlaps:      23     180

siesta: E_KS(eV) =            -2066.6675

siesta: Atomic forces (eV/Ang):
----------------------------------------
   Tot   -0.012125    0.000981   -0.000000
----------------------------------------
   Max  125.216630
   Res   26.166330    sqrt( Sum f_i^2 / 3N )
----------------------------------------
   Max  125.216630    constrained

Stress tensor Voigt[x,y,z,yz,xz,xy] (kbar):     -393.45     -369.14       -0.01       -0.00        0.00       -4.41
(Free)E + p*V (eV/cell)    -1739.9482
Target enthalpy (eV/cell)    -2066.6736

                     ====================================
                        Begin CG opt. move =      4
                     ====================================

outcell: Unit cell vectors (Ang):
       16.270000    0.000000    0.000000
        0.000000   12.656900    0.000000
        0.000000    0.000000   10.000000

outcell: Cell vector modules (Ang)   :   16.270000   12.656900   10.000000
outcell: Cell angles (23,13,12) (deg):     90.0000     90.0000     90.0000
outcell: Cell volume (Ang**3)        :   2059.2776
siesta: WARNING: Atoms    13    20 too close: rij =    0.519058 Ang
<dSpData1D:S at geom step 4
  <sparsity:sparsity for geom step 4
    nrows_g=187 nrows=187 sparsity=.9955 nnzs=34813, refcount: 7>
  <dData1D:(new from dSpData1D) n=34813, refcount: 1>
refcount: 1>
new_DM -- step:     5
Re-using DM from previous geometries...
Number of DMs in history: 1
 DM extrapolation coefficients: 
1   1.00000
New DM after history re-use:
<dSpData2D:SpM extrapolated using coords
  <sparsity:sparsity for geom step 4
    nrows_g=187 nrows=187 sparsity=.9955 nnzs=34813, refcount: 9>
  <dData2D:(temp array for extrapolation) n=34813 m=1, refcount: 1>
refcount: 1>
Note: For starting DM, Qtot, Tr[D*S] =         54.00000000         54.59665604
No. of atoms with KB's overlaping orbs in proc 0. Max # of overlaps:      23     179

InitMesh: MESH = 180 x 144 x 108 = 2799360
InitMesh: Mesh cutoff (required, used) =   300.000   322.366 Ry
New grid distribution [1]: sub = 2

        iscf     Eharris(eV)        E_KS(eV)     FreeEng(eV)     dDmax    Ef(eV) dHmax(eV)
   scf:    1    -2044.075003    -2063.251686    -2063.251792  4.506108 -0.390674 15.319320
   scf:    2    -1545.391647    -1906.097449    -1906.097480  5.885958 -3.578533 50.730647
   scf:    3    -2114.128151    -2072.731556    -2072.731581  4.557403 -0.838247  5.419244
   scf:    4    -2073.329912    -2073.852967    -2073.853055  1.650836 -0.629989  1.958399
   scf:    5    -2073.918309    -2074.128812    -2074.129252  1.610865 -0.702129  1.001232
   scf:    6    -2074.192908    -2074.188759    -2074.189525  0.449241 -0.734169  0.344956
   scf:    7    -2074.193991    -2074.194618    -2074.195733  0.083941 -0.752301  0.239499
   scf:    8    -2074.198497    -2074.197038    -2074.198298  0.037066 -0.762857  0.165089
   scf:    9    -2074.199192    -2074.198272    -2074.199829  0.053465 -0.779791  0.119592
   scf:   10    -2074.197382    -2074.198551    -2074.200328  0.051519 -0.796083  0.117230
   scf:   11    -2074.198704    -2074.199032    -2074.200795  0.028033 -0.796199  0.058932
   scf:   12    -2074.199240    -2074.199146    -2074.200952  0.010386 -0.800764  0.040827
   scf:   13    -2074.199270    -2074.199213    -2074.201077  0.018349 -0.810398  0.018250
   scf:   14    -2074.199172    -2074.199210    -2074.201096  0.023007 -0.818934  0.010730
   scf:   15    -2074.199272    -2074.199245    -2074.201106  0.006513 -0.816402  0.003670
   scf:   16    -2074.199264    -2074.199255    -2074.201107  0.003022 -0.817111  0.002251
   scf:   17    -2074.199278    -2074.199266    -2074.201108  0.001970 -0.817500  0.001180
   scf:   18    -2074.199288    -2074.199277    -2074.201108  0.002494 -0.817839  0.000835
   scf:   19    -2074.199275    -2074.199276    -2074.201108  0.000609 -0.817738  0.000486
   scf:   20    -2074.199281    -2074.199278    -2074.201108  0.000537 -0.817794  0.000267
   scf:   21    -2074.199283    -2074.199281    -2074.201108  0.000465 -0.817836  0.000191
   scf:   22    -2074.199282    -2074.199282    -2074.201108  0.000307 -0.817862  0.000189
   scf:   23    -2074.199282    -2074.199282    -2074.201108  0.000031 -0.817863  0.000098

SCF Convergence by DM+H criterion
max |DM_out - DM_in|         :     0.0000307804
max |H_out - H_in|      (eV) :     0.0000978157
SCF cycle converged after 23 iterations

Using DM_out to compute the final energy and forces
No. of atoms with KB's overlaping orbs in proc 0. Max # of overlaps:      23     179

siesta: E_KS(eV) =            -2074.1993

siesta: Atomic forces (eV/Ang):
----------------------------------------
   Tot    0.016568    0.003072    0.000000
----------------------------------------
   Max  279.501810
   Res   48.385744    sqrt( Sum f_i^2 / 3N )
----------------------------------------
   Max  279.501810    constrained

Stress tensor Voigt[x,y,z,yz,xz,xy] (kbar):     -342.92     -373.00       -0.00        0.00       -0.00       -8.73
(Free)E + p*V (eV/cell)    -1767.4789
Target enthalpy (eV/cell)    -2074.2011

                     ====================================
                        Begin CG opt. move =      5
                     ====================================

outcell: Unit cell vectors (Ang):
       16.270000    0.000000    0.000000
        0.000000   12.656900    0.000000
        0.000000    0.000000   10.000000

outcell: Cell vector modules (Ang)   :   16.270000   12.656900   10.000000
outcell: Cell angles (23,13,12) (deg):     90.0000     90.0000     90.0000
outcell: Cell volume (Ang**3)        :   2059.2776
<dSpData1D:S at geom step 5
  <sparsity:sparsity for geom step 5
    nrows_g=187 nrows=187 sparsity=.9957 nnzs=34817, refcount: 7>
  <dData1D:(new from dSpData1D) n=34817, refcount: 1>
refcount: 1>
new_DM -- step:     6
Re-using DM from previous geometries...
Number of DMs in history: 1
 DM extrapolation coefficients: 
1   1.00000
New DM after history re-use:
<dSpData2D:SpM extrapolated using coords
  <sparsity:sparsity for geom step 5
    nrows_g=187 nrows=187 sparsity=.9957 nnzs=34817, refcount: 9>
  <dData2D:(temp array for extrapolation) n=34817 m=1, refcount: 1>
refcount: 1>
Note: For starting DM, Qtot, Tr[D*S] =         54.00000000         53.87986326
No. of atoms with KB's overlaping orbs in proc 0. Max # of overlaps:      23     179

InitMesh: MESH = 180 x 144 x 108 = 2799360
InitMesh: Mesh cutoff (required, used) =   300.000   322.366 Ry
New grid distribution [1]: sub = 2

        iscf     Eharris(eV)        E_KS(eV)     FreeEng(eV)     dDmax    Ef(eV) dHmax(eV)
   scf:    1    -2069.851633    -2075.085562    -2075.141652  1.464413 -0.901580  3.921649
   scf:    2    -2022.883276    -2059.353135    -2059.353137  4.676483 -0.308525 15.803768
   scf:    3    -2074.859944    -2075.334711    -2075.348680  4.565415 -0.651003  2.876531
   scf:    4    -2071.849576    -2075.061012    -2075.091004  3.714074 -0.792364  3.652505
   scf:    5    -2075.855642    -2076.023429    -2076.087915  1.730367 -0.670348  0.947658
   scf:    6    -2076.010922    -2076.057157    -2076.118391  0.547585 -0.707060  0.585441
   scf:    7    -2075.676736    -2075.971778    -2076.043197  0.940963 -0.746893  1.137139
   scf:    8    -2076.079589    -2076.079674    -2076.146528  0.603348 -0.719001  0.159025
   scf:    9    -2076.077887    -2076.079726    -2076.145404  0.121728 -0.726915  0.194662
   scf:   10    -2076.059892    -2076.075116    -2076.144193  0.199283 -0.737531  0.196862
   scf:   11    -2076.081811    -2076.080747    -2076.147775  0.130712 -0.734202  0.055491
   scf:   12    -2076.080950    -2076.080864    -2076.147739  0.022809 -0.737183  0.061297
   scf:   13    -2076.076825    -2076.079433    -2076.147444  0.064530 -0.740944  0.068828
   scf:   14    -2076.081404    -2076.080823    -2076.147899  0.062057 -0.740512  0.035627
   scf:   15    -2076.080808    -2076.080816    -2076.147924  0.003598 -0.741996  0.030008
   scf:   16    -2076.080243    -2076.080570    -2076.147976  0.013277 -0.749198  0.010869
   scf:   17    -2076.080840    -2076.080714    -2076.147982  0.005637 -0.747764  0.006201
   scf:   18    -2076.080645    -2076.080680    -2076.147984  0.001579 -0.748442  0.001846
   scf:   19    -2076.080657    -2076.080669    -2076.147985  0.000899 -0.748794  0.000707
   scf:   20    -2076.080656    -2076.080662    -2076.147985  0.000682 -0.748988  0.000305
   scf:   21    -2076.080660    -2076.080661    -2076.147985  0.000212 -0.749017  0.000179
   scf:   22    -2076.080659    -2076.080660    -2076.147985  0.000202 -0.749034  0.000045
   scf:   23    -2076.080660    -2076.080660    -2076.147985  0.000035 -0.749032  0.000036

SCF Convergence by DM+H criterion
max |DM_out - DM_in|         :     0.0000346548
max |H_out - H_in|      (eV) :     0.0000363844
SCF cycle converged after 23 iterations

Using DM_out to compute the final energy and forces
No. of atoms with KB's overlaping orbs in proc 0. Max # of overlaps:      23     179

siesta: E_KS(eV) =            -2076.0807

siesta: Atomic forces (eV/Ang):
----------------------------------------
   Tot    0.021055   -0.002954    0.000000
----------------------------------------
   Max  227.233722
   Res   40.184365    sqrt( Sum f_i^2 / 3N )
----------------------------------------
   Max  227.233722    constrained

Stress tensor Voigt[x,y,z,yz,xz,xy] (kbar):     -354.31     -365.32       -0.00       -0.00        0.00       -7.98
(Free)E + p*V (eV/cell)    -1767.8345
Target enthalpy (eV/cell)    -2076.1480

cgvc: Finished line minimization    1.  Mean atomic displacement =    0.0978

                     ====================================
                        Begin CG opt. move =      6
                     ====================================

outcell: Unit cell vectors (Ang):
       16.270000    0.000000    0.000000
        0.000000   12.656900    0.000000
        0.000000    0.000000   10.000000

outcell: Cell vector modules (Ang)   :   16.270000   12.656900   10.000000
outcell: Cell angles (23,13,12) (deg):     90.0000     90.0000     90.0000
outcell: Cell volume (Ang**3)        :   2059.2776
siesta: WARNING: Atoms    13    20 too close: rij =    0.502652 Ang
<dSpData1D:S at geom step 6
  <sparsity:sparsity for geom step 6
    nrows_g=187 nrows=187 sparsity=.9954 nnzs=34809, refcount: 7>
  <dData1D:(new from dSpData1D) n=34809, refcount: 1>
refcount: 1>
new_DM -- step:     7
Re-using DM from previous geometries...
Number of DMs in history: 1
 DM extrapolation coefficients: 
1   1.00000
New DM after history re-use:
<dSpData2D:SpM extrapolated using coords
  <sparsity:sparsity for geom step 6
    nrows_g=187 nrows=187 sparsity=.9954 nnzs=34809, refcount: 9>
  <dData2D:(temp array for extrapolation) n=34809 m=1, refcount: 1>
refcount: 1>
Note: For starting DM, Qtot, Tr[D*S] =         54.00000000         54.75931513
No. of atoms with KB's overlaping orbs in proc 0. Max # of overlaps:      23     179

InitMesh: MESH = 180 x 144 x 108 = 2799360
InitMesh: Mesh cutoff (required, used) =   300.000   322.366 Ry
New grid distribution [1]: sub = 2

        iscf     Eharris(eV)        E_KS(eV)     FreeEng(eV)     dDmax    Ef(eV) dHmax(eV)
   scf:    1    -2063.460673    -2097.802211    -2097.802211  2.584736 -1.189030 15.947942
   scf:    2       59.126880    -1413.291762    -1413.291792  7.885303 -3.662275103.748906
   scf:    3    -2234.457561    -2114.810090    -2114.871292  6.838033 -1.397943  5.727560
   scf:    4    -2114.231905    -2116.169042    -2116.169766  1.760347 -0.932500  2.818305
   scf:    5    -2116.726476    -2116.796084    -2116.826361  1.058032 -0.972514  1.350446
   scf:    6    -2116.262142    -2116.743017    -2116.812713  0.813829 -1.042749  1.504553
   scf:    7    -2116.813489    -2116.895494    -2116.938750  0.547236 -0.987308  0.441249
   scf:    8    -2116.840131    -2116.897930    -2116.955447  0.342292 -0.985983  0.463890
   scf:    9    -2116.903927    -2116.904756    -2116.962827  0.075545 -0.991517  0.258173
   scf:   10    -2116.889778    -2116.911222    -2116.957175  0.198982 -0.972564  0.405933
   scf:   11    -2116.906507    -2116.914419    -2116.968489  0.121879 -0.982838  0.064682
   scf:   12    -2116.915286    -2116.914890    -2116.968715  0.018372 -0.982821  0.025063
   scf:   13    -2116.915545    -2116.915270    -2116.968790  0.011998 -0.982008  0.038036
   scf:   14    -2116.915102    -2116.915195    -2116.968835  0.005344 -0.982612  0.022012
   scf:   15    -2116.915347    -2116.915272    -2116.968871  0.006026 -0.983157  0.015971
   scf:   16    -2116.914816    -2116.915063    -2116.968890  0.010592 -0.985262  0.014560
   scf:   17    -2116.915633    -2116.915363    -2116.968899  0.008085 -0.984309  0.009044
   scf:   18    -2116.915228    -2116.915296    -2116.968906  0.002145 -0.984883  0.004042
   scf:   19    -2116.915454    -2116.915377    -2116.968907  0.005514 -0.985535  0.005245
   scf:   20    -2116.915015    -2116.915199    -2116.968907  0.003872 -0.985645  0.004257
   scf:   21    -2116.915456    -2116.915329    -2116.968909  0.002499 -0.985628  0.003041
   scf:   22    -2116.915351    -2116.915340    -2116.968909  0.000908 -0.985717  0.003111
   scf:   23    -2116.915105    -2116.915224    -2116.968908  0.001804 -0.985972  0.003607
   scf:   24    -2116.915409    -2116.915317    -2116.968909  0.001643 -0.985889  0.001575
   scf:   25    -2116.915321    -2116.915319    -2116.968909  0.000464 -0.985972  0.001402
   scf:   26    -2116.915223    -2116.915271    -2116.968909  0.000751 -0.986105  0.001404
   scf:   27    -2116.915352    -2116.915312    -2116.968909  0.000820 -0.986076  0.000798
   scf:   28    -2116.915309    -2116.915310    -2116.968909  0.000171 -0.986119  0.000616
   scf:   29    -2116.915289    -2116.915300    -2116.968909  0.000259 -0.986223  0.000340
   scf:   30    -2116.915309    -2116.915304    -2116.968909  0.000154 -0.986216  0.000287
   scf:   31    -2116.915309    -2116.915307    -2116.968909  0.000080 -0.986226  0.000212

SCF Convergence by DM+H criterion
max |DM_out - DM_in|         :     0.0000802963
max |H_out - H_in|      (eV) :     0.0002122516
SCF cycle converged after 31 iterations

Using DM_out to compute the final energy and forces
No. of atoms with KB's overlaping orbs in proc 0. Max # of overlaps:      23     179

siesta: E_KS(eV) =            -2116.9153

siesta: Atomic forces (eV/Ang):
----------------------------------------
   Tot    0.003250   -0.013876    0.000000
----------------------------------------
   Max   88.241928
   Res   19.189050    sqrt( Sum f_i^2 / 3N )
----------------------------------------
   Max   88.241928    constrained

Stress tensor Voigt[x,y,z,yz,xz,xy] (kbar):     -325.99     -285.26       -0.00        0.00       -0.00      -15.30
(Free)E + p*V (eV/cell)    -1855.0897
Target enthalpy (eV/cell)    -2116.9689

                     ====================================
                        Begin CG opt. move =      7
                     ====================================

outcell: Unit cell vectors (Ang):
       16.270000    0.000000    0.000000
        0.000000   12.656900    0.000000
        0.000000    0.000000   10.000000

outcell: Cell vector modules (Ang)   :   16.270000   12.656900   10.000000
outcell: Cell angles (23,13,12) (deg):     90.0000     90.0000     90.0000
outcell: Cell volume (Ang**3)        :   2059.2776
siesta: WARNING: Atoms    13    20 too close: rij =    0.442293 Ang
<dSpData1D:S at geom step 7
  <sparsity:sparsity for geom step 7
    nrows_g=187 nrows=187 sparsity=.9953 nnzs=34805, refcount: 7>
  <dData1D:(new from dSpData1D) n=34805, refcount: 1>
refcount: 1>
new_DM -- step:     8
Re-using DM from previous geometries...
Number of DMs in history: 1
 DM extrapolation coefficients: 
1   1.00000
New DM after history re-use:
<dSpData2D:SpM extrapolated using coords
  <sparsity:sparsity for geom step 7
    nrows_g=187 nrows=187 sparsity=.9953 nnzs=34805, refcount: 9>
  <dData2D:(temp array for extrapolation) n=34805 m=1, refcount: 1>
refcount: 1>
Note: For starting DM, Qtot, Tr[D*S] =         54.00000000         54.58508860
No. of atoms with KB's overlaping orbs in proc 0. Max # of overlaps:      23     179

InitMesh: MESH = 180 x 144 x 108 = 2799360
InitMesh: Mesh cutoff (required, used) =   300.000   322.366 Ry
New grid distribution [1]: sub = 2

        iscf     Eharris(eV)        E_KS(eV)     FreeEng(eV)     dDmax    Ef(eV) dHmax(eV)
   scf:    1    -2085.975748    -2119.100449    -2119.100449  2.160583 -1.510407 15.430293
   scf:    2      -21.227234    -1453.785754    -1453.786487  7.555499 -3.668131102.549942
   scf:    3    -2280.388639    -2135.717754    -2135.720570  6.040837 -1.878275  5.259086
   scf:    4    -2137.796750    -2137.199399    -2137.214681  0.630881 -1.443706  1.838263
   scf:    5    -2131.818339    -2135.851355    -2135.863874  1.061175 -1.333451  4.909697
   scf:    6    -2137.168779    -2137.406908    -2137.429085  0.832888 -1.391432  0.503523
   scf:    7    -2137.445842    -2137.430954    -2137.450634  0.093772 -1.363136  0.208209
   scf:    8    -2137.422692    -2137.431690    -2137.451495  0.076439 -1.351286  0.266158
   scf:    9    -2137.436332    -2137.434800    -2137.454432  0.026924 -1.353695  0.126996
   scf:   10    -2137.435615    -2137.435225    -2137.454780  0.008619 -1.352397  0.100955
   scf:   11    -2137.429279    -2137.434002    -2137.453353  0.050931 -1.355184  0.181411
   scf:   12    -2137.435223    -2137.435796    -2137.455230  0.035907 -1.352449  0.036887
   scf:   13    -2137.436013    -2137.435911    -2137.455294  0.005599 -1.352711  0.017324
   scf:   14    -2137.436088    -2137.436003    -2137.455318  0.006381 -1.353266  0.002361
   scf:   15    -2137.436041    -2137.436022    -2137.455320  0.001542 -1.353579  0.001270
   scf:   16    -2137.436051    -2137.436037    -2137.455320  0.001184 -1.353877  0.000844
   scf:   17    -2137.436051    -2137.436044    -2137.455320  0.001225 -1.354158  0.001849
   scf:   18    -2137.436036    -2137.436040    -2137.455320  0.000706 -1.354023  0.000476
   scf:   19    -2137.436043    -2137.436041    -2137.455320  0.000247 -1.354088  0.000267
   scf:   20    -2137.436044    -2137.436043    -2137.455320  0.000285 -1.354168  0.000171
   scf:   21    -2137.436044    -2137.436044    -2137.455320  0.000288 -1.354234  0.000333
   scf:   22    -2137.436042    -2137.436043    -2137.455320  0.000175 -1.354194  0.000066
   scf:   23    -2137.436043    -2137.436043    -2137.455320  0.000034 -1.354202  0.000039

SCF Convergence by DM+H criterion
max |DM_out - DM_in|         :     0.0000337734
max |H_out - H_in|      (eV) :     0.0000392293
SCF cycle converged after 23 iterations

Using DM_out to compute the final energy and forces
No. of atoms with KB's overlaping orbs in proc 0. Max # of overlaps:      23     179

siesta: E_KS(eV) =            -2137.4360

siesta: Atomic forces (eV/Ang):
----------------------------------------
   Tot    0.014541   -0.013763    0.000000
----------------------------------------
   Max   39.664479
   Res   14.538937    sqrt( Sum f_i^2 / 3N )
----------------------------------------
   Max   39.664479    constrained

Stress tensor Voigt[x,y,z,yz,xz,xy] (kbar):     -300.36     -239.04       -0.00        0.00        0.00      -21.61
(Free)E + p*V (eV/cell)    -1906.3585
Target enthalpy (eV/cell)    -2137.4553

                     ====================================
                        Begin CG opt. move =      8
                     ====================================

outcell: Unit cell vectors (Ang):
       16.270000    0.000000    0.000000
        0.000000   12.656900    0.000000
        0.000000    0.000000   10.000000

outcell: Cell vector modules (Ang)   :   16.270000   12.656900   10.000000
outcell: Cell angles (23,13,12) (deg):     90.0000     90.0000     90.0000
outcell: Cell volume (Ang**3)        :   2059.2776
siesta: WARNING: Atoms    13    20 too close: rij =    0.384453 Ang
<dSpData1D:S at geom step 8
  <sparsity:sparsity for geom step 8
    nrows_g=187 nrows=187 sparsity=.9951 nnzs=34797, refcount: 7>
  <dData1D:(new from dSpData1D) n=34797, refcount: 1>
refcount: 1>
new_DM -- step:     9
Re-using DM from previous geometries...
Number of DMs in history: 1
 DM extrapolation coefficients: 
1   1.00000
New DM after history re-use:
<dSpData2D:SpM extrapolated using coords
  <sparsity:sparsity for geom step 8
    nrows_g=187 nrows=187 sparsity=.9951 nnzs=34797, refcount: 9>
  <dData2D:(temp array for extrapolation) n=34797 m=1, refcount: 1>
refcount: 1>
Note: For starting DM, Qtot, Tr[D*S] =         54.00000000         54.43940354
No. of atoms with KB's overlaping orbs in proc 0. Max # of overlaps:      23     178

InitMesh: MESH = 180 x 144 x 108 = 2799360
InitMesh: Mesh cutoff (required, used) =   300.000   322.366 Ry
New grid distribution [1]: sub = 2

        iscf     Eharris(eV)        E_KS(eV)     FreeEng(eV)     dDmax    Ef(eV) dHmax(eV)
   scf:    1    -2090.592194    -2126.276742    -2126.276742  2.925733 -2.073560 15.380342
   scf:    2       70.078920    -1431.832983    -1431.840504  6.418515 -3.616118102.891559
   scf:    3    -2299.514033    -2143.700634    -2143.700635  5.997631 -2.493155  5.589625
   scf:    4    -2145.971187    -2145.308974    -2145.309020  0.427722 -1.918320  2.770526
   scf:    5    -2109.589247    -2134.982221    -2134.986161  1.775565 -1.857862 11.671934
   scf:    6    -2141.697670    -2145.489739    -2145.489914  1.731732 -1.856545  2.066434
   scf:    7    -2145.729403    -2145.616718    -2145.617762  0.097387 -1.850226  1.583518
   scf:    8    -2126.228329    -2139.897378    -2139.918956  1.338136 -1.866590  8.444893
   scf:    9    -2144.190072    -2145.702620    -2145.705713  1.288807 -1.852980  1.147008
   scf:   10    -2145.803323    -2145.758605    -2145.764294  0.066392 -1.856043  0.748555
   scf:   11    -2145.668129    -2145.772596    -2145.788166  0.176432 -1.865506  0.496533
   scf:   12    -2145.790186    -2145.796551    -2145.807495  0.087108 -1.864189  0.132922
   scf:   13    -2145.795974    -2145.796842    -2145.808732  0.017687 -1.866544  0.011061
   scf:   14    -2145.796573    -2145.796713    -2145.808732  0.001824 -1.868188  0.014878
   scf:   15    -2145.796778    -2145.796746    -2145.808738  0.000610 -1.868001  0.012511
   scf:   16    -2145.796661    -2145.796704    -2145.808736  0.000801 -1.868984  0.013652
   scf:   17    -2145.796823    -2145.796765    -2145.808739  0.001136 -1.867725  0.011952
   scf:   18    -2145.796680    -2145.796723    -2145.808735  0.000531 -1.867935  0.013853
   scf:   19    -2145.796725    -2145.796724    -2145.808738  0.001098 -1.868809  0.012664
   scf:   20    -2145.796677    -2145.796908    -2145.808429  0.014995 -1.875660  0.064412
   scf:   21    -2145.796164    -2145.796735    -2145.808747  0.012731 -1.870781  0.008927
   scf:   22    -2145.796798    -2145.796767    -2145.808753  0.001700 -1.871911  0.004673
   scf:   23    -2145.796816    -2145.796792    -2145.808755  0.001726 -1.873156  0.000818
   scf:   24    -2145.796810    -2145.796801    -2145.808755  0.000371 -1.873404  0.000399
   scf:   25    -2145.796798    -2145.796799    -2145.808755  0.000105 -1.873346  0.000164
   scf:   26    -2145.796802    -2145.796801    -2145.808755  0.000019 -1.873351  0.000152

SCF Convergence by DM+H criterion
max |DM_out - DM_in|         :     0.0000187007
max |H_out - H_in|      (eV) :     0.0001520706
SCF cycle converged after 26 iterations

Using DM_out to compute the final energy and forces
No. of atoms with KB's overlaping orbs in proc 0. Max # of overlaps:      23     178

siesta: E_KS(eV) =            -2145.7968

siesta: Atomic forces (eV/Ang):
----------------------------------------
   Tot    0.008202   -0.001233    0.000000
----------------------------------------
   Max   54.302367
   Res   18.170914    sqrt( Sum f_i^2 / 3N )
----------------------------------------
   Max   54.302367    constrained

Stress tensor Voigt[x,y,z,yz,xz,xy] (kbar):     -278.01     -214.04       -0.01        0.00       -0.00      -26.76
(Free)E + p*V (eV/cell)    -1934.9958
Target enthalpy (eV/cell)    -2145.8088

                     ====================================
                        Begin CG opt. move =      9
                     ====================================

outcell: Unit cell vectors (Ang):
       16.270000    0.000000    0.000000
        0.000000   12.656900    0.000000
        0.000000    0.000000   10.000000

outcell: Cell vector modules (Ang)   :   16.270000   12.656900   10.000000
outcell: Cell angles (23,13,12) (deg):     90.0000     90.0000     90.0000
outcell: Cell volume (Ang**3)        :   2059.2776
siesta: WARNING: Atoms    13    20 too close: rij =    0.330460 Ang
<dSpData1D:S at geom step 9
  <sparsity:sparsity for geom step 9
    nrows_g=187 nrows=187 sparsity=.9945 nnzs=34775, refcount: 7>
  <dData1D:(new from dSpData1D) n=34775, refcount: 1>
refcount: 1>
new_DM -- step:    10
Re-using DM from previous geometries...
Number of DMs in history: 1
 DM extrapolation coefficients: 
1   1.00000
New DM after history re-use:
<dSpData2D:SpM extrapolated using coords
  <sparsity:sparsity for geom step 9
    nrows_g=187 nrows=187 sparsity=.9945 nnzs=34775, refcount: 9>
  <dData2D:(temp array for extrapolation) n=34775 m=1, refcount: 1>
refcount: 1>
Note: For starting DM, Qtot, Tr[D*S] =         54.00000000         54.30770595
No. of atoms with KB's overlaping orbs in proc 0. Max # of overlaps:      23     177

InitMesh: MESH = 180 x 144 x 108 = 2799360
InitMesh: Mesh cutoff (required, used) =   300.000   322.366 Ry
New grid distribution [1]: sub = 2

        iscf     Eharris(eV)        E_KS(eV)     FreeEng(eV)     dDmax    Ef(eV) dHmax(eV)
   scf:    1    -2081.686373    -2123.506804    -2123.506804  3.485133 -2.688321 15.824864
   scf:    2      525.846571    -1285.083385    -1285.091733  7.412631 -3.791835108.191960
   scf:    3    -2322.843036    -2143.575538    -2143.575538  6.391604 -3.163041  5.864673
   scf:    4    -2146.278732    -2145.526529    -2145.526529  0.247287 -2.562121  2.758482
   scf:    5    -2129.215556    -2141.172371    -2141.226403  0.821521 -2.500803  7.042414
   scf:    6    -2142.843986    -2145.672308    -2145.672311  0.815347 -2.532367  2.129811
   scf:    7    -2145.846340    -2145.762414    -2145.762511  0.030175 -2.535011  1.772272
   scf:    8    -2091.182641    -2128.932508    -2128.932797  1.441703 -2.582820 13.753762
   scf:    9    -2142.344343    -2145.815366    -2145.816068  1.436546 -2.544375  1.536662
   scf:   10    -2145.897403    -2145.857711    -2145.860531  0.020474 -2.550993  1.315967
   scf:   11    -2096.812560    -2130.489960    -2130.499053  1.394884 -2.596366 13.027014
   scf:   12    -2143.470359    -2145.890411    -2145.896408  1.382588 -2.557529  1.122522
   scf:   13    -2145.956714    -2145.925680    -2145.936023  0.018295 -2.562414  0.884441
   scf:   14    -2144.301789    -2145.520973    -2145.571845  0.295833 -2.582262  2.162473
   scf:   15    -2145.800098    -2145.966538    -2145.984864  0.257710 -2.571473  0.458768
   scf:   16    -2145.982211    -2145.977831    -2146.000902  0.026588 -2.575940  0.175542
   scf:   17    -2145.970912    -2145.976622    -2146.003333  0.022362 -2.580223  0.053481
   scf:   18    -2145.978227    -2145.977494    -2146.003585  0.003778 -2.580603  0.017666
   scf:   19    -2145.977476    -2145.977485    -2146.003587  0.000425 -2.581802  0.016028
   scf:   20    -2145.978317    -2145.978217    -2146.003155  0.007891 -2.589956  0.069267
   scf:   21    -2145.976499    -2145.977613    -2146.003605  0.006964 -2.583656  0.006554
   scf:   22    -2145.977714    -2145.977664    -2146.003608  0.000390 -2.584290  0.002275
   scf:   23    -2145.977715    -2145.977690    -2146.003608  0.000204 -2.584625  0.000280
   scf:   24    -2145.977696    -2145.977693    -2146.003608  0.000025 -2.584629  0.000149

SCF Convergence by DM+H criterion
max |DM_out - DM_in|         :     0.0000250567
max |H_out - H_in|      (eV) :     0.0001492265
SCF cycle converged after 24 iterations

Using DM_out to compute the final energy and forces
No. of atoms with KB's overlaping orbs in proc 0. Max # of overlaps:      23     177

siesta: E_KS(eV) =            -2145.9777

siesta: Atomic forces (eV/Ang):
----------------------------------------
   Tot   -0.008795    0.014366   -0.000000
----------------------------------------
   Max   86.875558
   Res   24.745187    sqrt( Sum f_i^2 / 3N )
----------------------------------------
   Max   86.875558    constrained

Stress tensor Voigt[x,y,z,yz,xz,xy] (kbar):     -256.17     -206.45       -0.02       -0.00        0.00      -30.65
(Free)E + p*V (eV/cell)    -1947.7945
Target enthalpy (eV/cell)    -2146.0036

                     ====================================
                        Begin CG opt. move =     10
                     ====================================

outcell: Unit cell vectors (Ang):
       16.270000    0.000000    0.000000
        0.000000   12.656900    0.000000
        0.000000    0.000000   10.000000

outcell: Cell vector modules (Ang)   :   16.270000   12.656900   10.000000
outcell: Cell angles (23,13,12) (deg):     90.0000     90.0000     90.0000
outcell: Cell volume (Ang**3)        :   2059.2776
siesta: WARNING: Atoms    13    20 too close: rij =    0.353960 Ang
<dSpData1D:S at geom step 10
  <sparsity:sparsity for geom step 10
    nrows_g=187 nrows=187 sparsity=.9950 nnzs=34793, refcount: 7>
  <dData1D:(new from dSpData1D) n=34793, refcount: 1>
refcount: 1>
new_DM -- step:    11
Re-using DM from previous geometries...
Number of DMs in history: 1
 DM extrapolation coefficients: 
1   1.00000
New DM after history re-use:
<dSpData2D:SpM extrapolated using coords
  <sparsity:sparsity for geom step 10
    nrows_g=187 nrows=187 sparsity=.9950 nnzs=34793, refcount: 9>
  <dData2D:(temp array for extrapolation) n=34793 m=1, refcount: 1>
refcount: 1>
Note: For starting DM, Qtot, Tr[D*S] =         54.00000000         53.88770278
No. of atoms with KB's overlaping orbs in proc 0. Max # of overlaps:      23     178

InitMesh: MESH = 180 x 144 x 108 = 2799360
InitMesh: Mesh cutoff (required, used) =   300.000   322.366 Ry
New grid distribution [1]: sub = 2

        iscf     Eharris(eV)        E_KS(eV)     FreeEng(eV)     dDmax    Ef(eV) dHmax(eV)
   scf:    1    -2141.976961    -2146.018121    -2146.018130  1.460243 -2.263013  3.339722
   scf:    2    -2032.315838    -2110.934608    -2110.934621  1.489572 -2.718449 22.040811
   scf:    3    -2143.923493    -2146.575882    -2146.583215  1.321511 -2.249655  1.465695
   scf:    4    -2138.266465    -2144.293886    -2144.358297  0.753597 -2.252140  5.241468
   scf:    5    -2145.582012    -2146.639383    -2146.652678  0.730186 -2.252270  1.126850
   scf:    6    -2146.732363    -2146.691847    -2146.711994  0.040853 -2.253472  0.716649
   scf:    7    -2146.474686    -2146.669026    -2146.709872  0.161308 -2.257710  0.729773
   scf:    8    -2146.722633    -2146.724531    -2146.754446  0.093243 -2.257142  0.104702
   scf:    9    -2146.721342    -2146.723575    -2146.755319  0.014309 -2.258584  0.025190
   scf:   10    -2146.723354    -2146.723465    -2146.755302  0.001139 -2.259436  0.028256
   scf:   11    -2146.723478    -2146.723472    -2146.755278  0.003412 -2.256563  0.032298
   scf:   12    -2146.719933    -2146.723560    -2146.752466  0.027115 -2.268851  0.185183
   scf:   13    -2146.719435    -2146.723404    -2146.755288  0.024793 -2.259539  0.030489
   scf:   14    -2146.724024    -2146.723729    -2146.755365  0.003190 -2.261475  0.011812
   scf:   15    -2146.723984    -2146.723860    -2146.755377  0.001928 -2.262818  0.002584
   scf:   16    -2146.723953    -2146.723907    -2146.755378  0.000643 -2.263205  0.000778
   scf:   17    -2146.723889    -2146.723898    -2146.755378  0.000122 -2.263154  0.000277
   scf:   18    -2146.723904    -2146.723901    -2146.755378  0.000054 -2.263173  0.000099

SCF Convergence by DM+H criterion
max |DM_out - DM_in|         :     0.0000535672
max |H_out - H_in|      (eV) :     0.0000993128
SCF cycle converged after 18 iterations

Using DM_out to compute the final energy and forces
No. of atoms with KB's overlaping orbs in proc 0. Max # of overlaps:      23     178

siesta: E_KS(eV) =            -2146.7239

siesta: Atomic forces (eV/Ang):
----------------------------------------
   Tot   -0.004080   -0.006261   -0.000000
----------------------------------------
   Max   70.208953
   Res   21.517533    sqrt( Sum f_i^2 / 3N )
----------------------------------------
   Max   70.208953    constrained

Stress tensor Voigt[x,y,z,yz,xz,xy] (kbar):     -265.98     -207.85       -0.01        0.00       -0.00      -29.15
(Free)E + p*V (eV/cell)    -1943.7414
Target enthalpy (eV/cell)    -2146.7554

cgvc: Finished line minimization    2.  Mean atomic displacement =    0.1096

outcoor: Final (unrelaxed) atomic coordinates (Ang):        
    5.52679204    1.10577555    0.00000000   1       1  O
    6.31931325   -1.04293476   -0.00000000   1       2  O
    2.83630016    0.21055536    0.00000000   2       3  C
    3.68211976    0.59636727    0.00000000   2       4  C
    4.74670086    0.42159023   -0.00000000   2       5  C
    1.92937200    0.72817941   -0.00000000   2       6  C
    2.88905567   -1.08787972    0.00000000   2       7  C
    6.27871514    0.15135675    0.00000000   2       8  C
    7.22798355    0.77697711   -0.00000000   2       9  C
    2.82591370    1.17998463   -0.00000000   3      10  H
    4.33529752    1.54142582   -0.00000000   3      11  H
    3.22066264    1.63592039    0.00000000   3      12  H
    4.03583931   -0.52293344    0.00000000   3      13  H
    5.19480014   -0.56751884    0.00000000   3      14  H
    2.42029006    1.69439361    0.00000000   3      15  H
    1.11765804    1.26842029    0.00000000   3      16  H
    1.44553765   -0.12537303   -0.00000000   3      17  H
    1.84473374   -0.79181386    0.00000000   3      18  H
    2.86403955   -1.76143550   -0.00000000   3      19  H
    3.84614270   -0.82176965    0.00000000   3      20  H
    7.72391511   -0.11169409   -0.00000000   3      21  H
    8.06913889    1.25308913    0.00000000   3      22  H
    6.71530401    1.63977022   -0.00000000   3      23  H

coxmol: Writing XMOL coordinates into file optimization.xyz                                                                                                                                                                                                                    

siesta: Program's energy decomposition (eV):
siesta: Ebs     =      -874.816023
siesta: Eions   =      3719.754406
siesta: Ena     =       920.355130
siesta: Ekin    =      1922.040773
siesta: Enl     =      -254.759308
siesta: Eso     =         0.000000
siesta: Edftu   =         0.000000
siesta: DEna    =      -190.596058
siesta: DUscf   =        20.727267
siesta: DUext   =         0.000000
siesta: Ex      =      -777.960804
siesta: Ec      =       -66.776496
siesta: Exc     =      -844.737300
siesta: EbV     =         0.000000
siesta: eta*DQ  =         0.000000
siesta: Emadel  =         0.000000
siesta: Emeta   =         0.000000
siesta: Emolmec =         0.000000
siesta: Ekinion =         0.000000
siesta: Eharris =     -2146.723904
siesta: Etot    =     -2146.723901
siesta: FreeEng =     -2146.755378

siesta: Final energy (eV):
siesta:  Band Struct. =    -874.816023
siesta:       Kinetic =    1922.040773
siesta:       Hartree =    6384.120306
siesta:         Edftu =       0.000000
siesta:       Eso     =       0.000000
siesta:    Ext. field =       0.000000
siesta:         Exch. =    -777.960804
siesta:         Corr. =     -66.776496
siesta:     Bulk bias =       0.000000
siesta:   Exch.-corr. =    -844.737300
siesta:  Ion-electron =  -14594.773154
siesta:       Ion-ion =    4986.625473
siesta:       Ekinion =       0.000000
siesta: D3 dispersion =       0.000000
siesta:         Total =   -2146.723901
siesta:         Fermi =      -2.263173

siesta: Atomic forces (eV/Ang):
siesta:      1   13.878549   29.068984    0.000000
siesta:      2    1.339572  -11.487149   -0.000000
siesta:      3  -41.215530  -55.123888   -0.000000
siesta:      4   59.030089   39.819396   -0.000000
siesta:      5   -3.887546  -25.668982    0.000000
siesta:      6  -47.139031   14.042844   -0.000000
siesta:      7   -4.962963   41.953452   -0.000000
siesta:      8    1.540326  -10.961489    0.000000
siesta:      9   23.086423    9.806913   -0.000000
siesta:     10   -3.467457    2.283183   -0.000000
siesta:     11   -5.798344    6.700860    0.000000
siesta:     12   10.954732   23.441541   -0.000000
siesta:     13   41.817898   51.309483   -0.000000
siesta:     14   -3.357277   -4.680489    0.000000
siesta:     15   -6.228364   18.933703   -0.000000
siesta:     16   -5.646024    4.525063   -0.000000
siesta:     17  -10.072147   -2.339720   -0.000000
siesta:     18   -3.092044   -9.499469    0.000000
siesta:     19   -0.440139  -58.552359   -0.000000
siesta:     20  -31.083891  -70.208953    0.000000
siesta:     21    5.251313   -4.543033    0.000000
siesta:     22    7.339171    3.428984    0.000000
siesta:     23    2.148605    7.744863    0.000000
siesta: ----------------------------------------
siesta:    Tot   -0.004080   -0.006261   -0.000000

siesta: Stress tensor (static) (eV/Ang**3):
siesta:    -0.166014   -0.018197   -0.000000
siesta:    -0.018197   -0.129733   -0.000000
siesta:    -0.000000    0.000000   -0.000009

siesta: Cell volume =       2059.277630 Ang**3

siesta: Pressure (static):
siesta:                Solid            Molecule  Units
siesta:           0.00107373          0.00000003  Ry/Bohr**3
siesta:           0.09858506          0.00000293  eV/Ang**3
siesta:         157.95068487          0.00468661  kBar

Basis Enthalpy Calculation:
    Basis Pressure for species 1(O) :      0.0200000 GPa
    Basis Pressure for species 2(C) :      0.0200000 GPa
    Basis Pressure for species 3(H) :      0.0200000 GPa

    Orbital volume contribution        =           1.620715 eV
    (Free)E + p_basis*V_orbitals       =       -2145.134663 eV
    (Free)Eharris+ p_basis*V_orbitals  =       -2145.134666 eV
WARNING: BASIS_ENTHALPY and BASIS_HARRIS_ENTHALPY files are deprecated. They will be removed in future releases.
Please use system_label.BASIS_ENTHALPY in your scripts instead.

siesta: Electric dipole (a.u.)  =    1.327325    1.133503    0.000000
siesta: Electric dipole (Debye) =    3.373724    2.881077    0.000000

cite: Please indicate the Siesta version in published work: 5.4.2
cite: This calculation has made use of features in the following articles
cite: which we encourage you to cite in published work.
cite: (Please see "optimization.bib" for a BibTeX file.)
        Primary SIESTA paper
          DOI: www.doi.org/10.1088/0953-8984/14/11/302
        PSML pseudopotential format
          DOI: www.doi.org/10.1016/j.cpc.2018.02.011


timer: Elapsed wall time (sec) =     671.919
timer: CPU execution times (sec):

Routine            Calls   Time/call    Tot.time        %
siesta                 1     671.566     671.566   100.00
Setup                  1       0.168       0.168     0.03
bands                  1       0.000       0.000     0.00
KSV_init               1       0.000       0.000     0.00
IterGeom              11      61.034     671.375    99.97
geom_init             11       4.591      50.499     7.52
state_init            11       0.110       1.213     0.18
hsparse               11       0.001       0.008     0.00
overlap               11       0.004       0.047     0.01
Setup_H0              11       2.136      23.501     3.50
naefs                 22       0.000       0.001     0.00
dnaefs                11       0.000       0.000     0.00
two-body              11       0.000       0.000     0.00
MolMec                22       0.000       0.000     0.00
kinefsm               22       0.004       0.098     0.01
nlefsm                22       0.025       0.545     0.08
DHSCF_Init            11       2.118      23.295     3.47
DHSCF1                11       0.035       0.389     0.06
InitMesh              11       0.035       0.389     0.06
INITMESH              11       0.000       0.000     0.00
DHSCF2                11       2.082      22.906     3.41
REMESH                11       0.115       1.263     0.19
REORD                687       0.003       2.386     0.36
PHION                 11       1.613      17.746     2.64
COMM_BSC            1077       0.002       2.691     0.40
POISON               272       0.112      30.520     4.54
fft                  544       0.041      22.118     3.29
setup_H              250       2.336     583.984    86.96
DHSCF                261       2.463     642.918    95.73
DHSCF3               261       2.333     608.834    90.66
rhoofd               261       0.969     252.894    37.66
XC                   261       0.497     129.737    19.32
GXC-CellXC           261       0.483     126.192    18.79
gridxc@cellXC        261       0.483     126.191    18.79
vmat                 261       0.709     184.941    27.54
IterSCF              239       2.345     560.504    83.46
compute_dm           239       0.009       2.142     0.32
diagon               239       0.009       2.127     0.32
r-eigvec             239       0.007       1.672     0.25
r-buildHS            239       0.000       0.016     0.00
rdiag                239       0.007       1.656     0.25
rdiag1               239       0.000       0.058     0.01
rdiag2               239       0.001       0.186     0.03
rdiag3               239       0.004       0.976     0.15
rdiag4               239       0.002       0.425     0.06
r-buildD             239       0.002       0.430     0.06
MIXER                228       0.000       0.052     0.01
PostSCF               11       5.488      60.363     8.99
FINAL_HF              11       5.488      60.363     8.99
DHSCF4                11       3.099      34.084     5.08
dfscf                 11       2.797      30.768     4.58
overfsm               11       0.005       0.051     0.01
writeHSX              11       0.000       0.005     0.00
state_analysis        11       0.000       0.002     0.00
siesta_move           11       0.000       0.004     0.00
Analysis               1       0.001       0.001     0.00
optical                1       0.000       0.000     0.00
  

>> End of run:  24-MAR-2026  11:57:40
Job completed
Job completed
